 Entering Gaussian System, Link 0=g16
 Initial command:
 /opt/local/g16/l1.exe "/data/tmp/cjd/Gau-60829.inp" -scrdir="/data/tmp/cjd/"
 Entering Link 1 = /opt/local/g16/l1.exe PID=     60830.
  
 Copyright (c) 1988-2019, Gaussian, Inc.  All Rights Reserved.
  
 This is part of the Gaussian(R) 16 program.  It is based on
 the Gaussian(R) 09 system (copyright 2009, Gaussian, Inc.),
 the Gaussian(R) 03 system (copyright 2003, Gaussian, Inc.),
 the Gaussian(R) 98 system (copyright 1998, Gaussian, Inc.),
 the Gaussian(R) 94 system (copyright 1995, Gaussian, Inc.),
 the Gaussian 92(TM) system (copyright 1992, Gaussian, Inc.),
 the Gaussian 90(TM) system (copyright 1990, Gaussian, Inc.),
 the Gaussian 88(TM) system (copyright 1988, Gaussian, Inc.),
 the Gaussian 86(TM) system (copyright 1986, Carnegie Mellon
 University), and the Gaussian 82(TM) system (copyright 1983,
 Carnegie Mellon University). Gaussian is a federally registered
 trademark of Gaussian, Inc.
  
 This software contains proprietary and confidential information,
 including trade secrets, belonging to Gaussian, Inc.
  
 This software is provided under written license and may be
 used, copied, transmitted, or stored only in accord with that
 written license.
  
 The following legend is applicable only to US Government
 contracts under FAR:
  
                    RESTRICTED RIGHTS LEGEND
  
 Use, reproduction and disclosure by the US Government is
 subject to restrictions as set forth in subparagraphs (a)
 and (c) of the Commercial Computer Software - Restricted
 Rights clause in FAR 52.227-19.
  
 Gaussian, Inc.
 340 Quinnipiac St., Bldg. 40, Wallingford CT 06492
  
  
 ---------------------------------------------------------------
 Warning -- This program may not be used in any manner that
 competes with the business of Gaussian, Inc. or will provide
 assistance to any competitor of Gaussian, Inc.  The licensee
 of this program is prohibited from giving any competitor of
 Gaussian, Inc. access to this program.  By using this program,
 the user acknowledges that Gaussian, Inc. is engaged in the
 business of creating and licensing software in the field of
 computational chemistry and represents and warrants to the
 licensee that it is not a competitor of Gaussian, Inc. and that
 it will not use this program in any manner prohibited above.
 ---------------------------------------------------------------
  

 Cite this work as:
 Gaussian 16, Revision C.01,
 M. J. Frisch, G. W. Trucks, H. B. Schlegel, G. E. Scuseria, 
 M. A. Robb, J. R. Cheeseman, G. Scalmani, V. Barone, 
 G. A. Petersson, H. Nakatsuji, X. Li, M. Caricato, A. V. Marenich, 
 J. Bloino, B. G. Janesko, R. Gomperts, B. Mennucci, H. P. Hratchian, 
 J. V. Ortiz, A. F. Izmaylov, J. L. Sonnenberg, D. Williams-Young, 
 F. Ding, F. Lipparini, F. Egidi, J. Goings, B. Peng, A. Petrone, 
 T. Henderson, D. Ranasinghe, V. G. Zakrzewski, J. Gao, N. Rega, 
 G. Zheng, W. Liang, M. Hada, M. Ehara, K. Toyota, R. Fukuda, 
 J. Hasegawa, M. Ishida, T. Nakajima, Y. Honda, O. Kitao, H. Nakai, 
 T. Vreven, K. Throssell, J. A. Montgomery, Jr., J. E. Peralta, 
 F. Ogliaro, M. J. Bearpark, J. J. Heyd, E. N. Brothers, K. N. Kudin, 
 V. N. Staroverov, T. A. Keith, R. Kobayashi, J. Normand, 
 K. Raghavachari, A. P. Rendell, J. C. Burant, S. S. Iyengar, 
 J. Tomasi, M. Cossi, J. M. Millam, M. Klene, C. Adamo, R. Cammi, 
 J. W. Ochterski, R. L. Martin, K. Morokuma, O. Farkas, 
 J. B. Foresman, and D. J. Fox, Gaussian, Inc., Wallingford CT, 2019.
 
 ******************************************
 Gaussian 16:  ES64L-G16RevC.01  3-Jul-2019
                 2-Mar-2023 
 ******************************************
 %nproc=16
 Will use up to   16 processors via shared memory.
 %mem=60GB
 -----------------------------------------------------------
 # B3LYP/genecp em=GD3BJ int=fine scrf=(smd,solvent=acetone)
 -----------------------------------------------------------
 1/38=1,172=1/1;
 2/12=2,17=6,18=5,40=1/2;
 3/5=7,11=2,16=1,17=8,25=1,30=1,70=32201,72=19,74=-5,75=-4,124=41/1,2,3;
 4//1;
 5/5=2,38=5,53=19/2;
 6/7=2,8=2,9=2,10=2,28=1/1;
 99/5=1,9=1/99;
 --------
 Template
 --------
 Symbolic Z-matrix:
 Charge =  0 Multiplicity = 1
 Co                   -1.3256   -0.20262  -0.24121 
 N                    -2.4583    1.27801  -0.44983 
 O                    -2.17518   2.42202  -1.13603 
 C                    -3.621     1.15573   0.10713 
 C                    -4.69255   2.18903   0.03349 
 H                    -4.83688   2.6395    1.01422 
 H                    -5.63316   1.73805  -0.27381 
 H                    -4.4053    2.96366  -0.6728 
 N                    -2.73257  -0.83976   0.82942 
 O                    -2.70997  -1.97833   1.44322 
 C                    -3.7888   -0.07531   0.83913 
 C                    -5.05221  -0.42445   1.55859 
 H                    -4.89859  -1.36158   2.08972 
 H                    -5.87689  -0.54543   0.85768 
 H                    -5.31524   0.3551    2.27046 
 N                    -0.30902  -1.78627  -0.23856 
 O                    -0.47881  -2.85111   0.60009 
 C                     0.62198  -1.84242  -1.13542 
 C                     1.52547  -3.01167  -1.32812 
 H                     2.54216  -2.73859  -1.05016 
 H                     1.53059  -3.31888  -2.37149 
 H                     1.19488  -3.83677  -0.70269 
 N                    -0.07692   0.30621  -1.57035 
 O                    -0.06947   1.46078  -2.16518 
 C                     0.74517  -0.64177  -1.92355 
 C                     1.75406  -0.49538  -3.01715 
 H                     2.76046  -0.64089  -2.6296 
 H                     1.66983   0.50581  -3.43497 
 H                     1.57812  -1.22521  -3.80592 
 H                    -1.28593   2.20961  -1.62329 
 H                    -1.374    -2.65401   1.07441 
 C                    -0.41811   0.52742   1.41521 
 H                    -1.0667    1.33711   1.74688 
 H                    -0.45129  -0.31877   2.10042 
 C                     0.93184   0.96317   1.11127 
 C                     1.95802   0.08858   1.28496 
 H                     1.70915  -0.87765   1.70796 
 C                     1.12003   2.39162   0.69291 
 H                     2.10062   2.75716   0.98457 
 H                     1.01676   2.49457  -0.38651 
 H                     0.35643   3.0159    1.15033 
 C                     3.37033   0.2696    1.0227 
 C                     4.29176  -0.44306   1.80183 
 C                     3.86547   1.07506  -0.00801 
 C                     5.64994  -0.31919   1.59065 
 H                     3.9255   -1.08526   2.58998 
 C                     5.22624   1.18345  -0.22685 
 H                     3.17997   1.58016  -0.66769 
 C                     6.12491   0.49996   0.57682 
 H                     6.34363  -0.86672   2.21212 
 H                     5.58923   1.80406  -1.03342 
 H                     7.18727   0.59413   0.40721 
 
 Stoichiometry    C18H25CoN4O4
 Framework group  C1[X(C18H25CoN4O4)]
 Deg. of freedom   150
 Full point group                 C1      NOp   1
 Largest Abelian subgroup         C1      NOp   1
 Largest concise Abelian subgroup C1      NOp   1
                         Standard orientation:                         
 ---------------------------------------------------------------------
 Center     Atomic      Atomic             Coordinates (Angstroms)
 Number     Number       Type             X           Y           Z
 ---------------------------------------------------------------------
      1         27           0       -1.348330    0.209347    0.295290
      2          7           0       -2.522985   -1.252962    0.270376
      3          8           0       -2.269193   -2.502037    0.755324
      4          6           0       -3.685382   -1.007794   -0.245141
      5          6           0       -4.786585   -2.008525   -0.330195
      6          1           0       -4.951024   -2.286717   -1.369986
      7          1           0       -5.711243   -1.588175    0.058224
      8          1           0       -4.517562   -2.896862    0.235389
      9          7           0       -2.743165    1.053756   -0.639150
     10          8           0       -2.691047    2.276923   -1.057180
     11          6           0       -3.821651    0.331407   -0.762282
     12          6           0       -5.079102    0.829891   -1.399506
     13          1           0       -4.901428    1.837125   -1.770731
     14          1           0       -5.894952    0.856672   -0.678614
     15          1           0       -5.370080    0.186220   -2.226960
     16          7           0       -0.285241    1.742492    0.541681
     17          8           0       -0.429173    2.935487   -0.108012
     18          6           0        0.653216    1.623651    1.424547
     19          6           0        1.592312    2.719180    1.796642
     20          1           0        2.598501    2.467238    1.465576
     21          1           0        1.613788    2.849710    2.876245
     22          1           0        1.282029    3.645154    1.319639
     23          7           0       -0.106110   -0.546783    1.507679
     24          8           0       -0.128796   -1.783438    1.904005
     25          6           0        0.746184    0.306406    2.002570
     26          6           0        1.757846   -0.046780    3.045192
     27          1           0        2.765406    0.132332    2.675124
     28          1           0        1.646844   -1.100426    3.293292
     29          1           0        1.609115    0.547517    3.945438
     30          1           0       -1.370666   -2.398057    1.260453
     31          1           0       -1.333088    2.844624   -0.597779
     32          6           0       -0.474412   -0.262540   -1.469318
     33          1           0       -1.149025   -0.987823   -1.922226
     34          1           0       -0.487218    0.685727   -2.005302
     35          6           0        0.864087   -0.780269   -1.257190
     36          6           0        1.914546    0.081781   -1.296430
     37          1           0        1.691529    1.111186   -1.551496
     38          6           0        1.012709   -2.262894   -1.082144
     39          1           0        1.979977   -2.602722   -1.441539
     40          1           0        0.913916   -2.539634   -0.033305
     41          1           0        0.227767   -2.781399   -1.627187
     42          6           0        3.322645   -0.179687   -1.084174
     43          6           0        4.259390    0.625586   -1.745994
     44          6           0        3.800798   -1.157808   -0.206152
     45          6           0        5.614725    0.430419   -1.574060
     46          1           0        3.906893    1.399101   -2.413201
     47          6           0        5.159245   -1.339053   -0.024141
     48          1           0        3.105212   -1.745370    0.369292
     49          6           0        6.072206   -0.557853   -0.714702
     50          1           0        6.320037    1.053281   -2.104916
     51          1           0        5.509243   -2.094227    0.664827
     52          1           0        7.132452   -0.708559   -0.575405
 ---------------------------------------------------------------------
 Rotational constants (GHZ):           0.3356915           0.1195542           0.1134086
 General basis read from cards:  (5D, 7F)
 ======================================================================================================
                                       Pseudopotential Parameters
 ======================================================================================================
  Center     Atomic      Valence      Angular      Power
  Number     Number     Electrons     Momentum     of R      Exponent        Coefficient   SO-Coeffient
 ======================================================================================================
    1         27           17
                                      D and up 
                                                     1      434.1076104      -10.00000000    0.00000000
                                                     2       78.8402758      -66.72402760    0.00000000
                                                     2       19.6037749      -11.71922430    0.00000000
                                      S - D
                                                     0      151.2307582        3.00000000    0.00000000
                                                     1      169.6790026       20.15531100    0.00000000
                                                     2       64.9909423      413.37622440    0.00000000
                                                     2       12.5076287      133.87277050    0.00000000
                                      P - D
                                                     0       92.7319924        5.00000000    0.00000000
                                                     1      121.1910183        6.18923530    0.00000000
                                                     2       48.6265909      326.32159190    0.00000000
                                                     2       11.9966971       73.87889700    0.00000000
    2          7
                                   No pseudopotential on this center.
    3          8
                                   No pseudopotential on this center.
    4          6
                                   No pseudopotential on this center.
    5          6
                                   No pseudopotential on this center.
    6          1
                                   No pseudopotential on this center.
    7          1
                                   No pseudopotential on this center.
    8          1
                                   No pseudopotential on this center.
    9          7
                                   No pseudopotential on this center.
   10          8
                                   No pseudopotential on this center.
   11          6
                                   No pseudopotential on this center.
   12          6
                                   No pseudopotential on this center.
   13          1
                                   No pseudopotential on this center.
   14          1
                                   No pseudopotential on this center.
   15          1
                                   No pseudopotential on this center.
   16          7
                                   No pseudopotential on this center.
   17          8
                                   No pseudopotential on this center.
   18          6
                                   No pseudopotential on this center.
   19          6
                                   No pseudopotential on this center.
   20          1
                                   No pseudopotential on this center.
   21          1
                                   No pseudopotential on this center.
   22          1
                                   No pseudopotential on this center.
   23          7
                                   No pseudopotential on this center.
   24          8
                                   No pseudopotential on this center.
   25          6
                                   No pseudopotential on this center.
   26          6
                                   No pseudopotential on this center.
   27          1
                                   No pseudopotential on this center.
   28          1
                                   No pseudopotential on this center.
   29          1
                                   No pseudopotential on this center.
   30          1
                                   No pseudopotential on this center.
   31          1
                                   No pseudopotential on this center.
   32          6
                                   No pseudopotential on this center.
   33          1
                                   No pseudopotential on this center.
   34          1
                                   No pseudopotential on this center.
   35          6
                                   No pseudopotential on this center.
   36          6
                                   No pseudopotential on this center.
   37          1
                                   No pseudopotential on this center.
   38          6
                                   No pseudopotential on this center.
   39          1
                                   No pseudopotential on this center.
   40          1
                                   No pseudopotential on this center.
   41          1
                                   No pseudopotential on this center.
   42          6
                                   No pseudopotential on this center.
   43          6
                                   No pseudopotential on this center.
   44          6
                                   No pseudopotential on this center.
   45          6
                                   No pseudopotential on this center.
   46          1
                                   No pseudopotential on this center.
   47          6
                                   No pseudopotential on this center.
   48          1
                                   No pseudopotential on this center.
   49          6
                                   No pseudopotential on this center.
   50          1
                                   No pseudopotential on this center.
   51          1
                                   No pseudopotential on this center.
   52          1
                                   No pseudopotential on this center.
 ======================================================================================================
 There are   464 symmetry adapted cartesian basis functions of A   symmetry.
 There are   436 symmetry adapted basis functions of A   symmetry.
   436 basis functions,   880 primitive gaussians,   464 cartesian basis functions
   105 alpha electrons      105 beta electrons
       nuclear repulsion energy      3011.2924237565 Hartrees.
 NAtoms=   52 NActive=   52 NUniq=   52 SFac= 1.00D+00 NAtFMM=   60 NAOKFM=F Big=F
 Integral buffers will be    131072 words long.
 Raffenetti 2 integral format.
 Two-electron integral symmetry is turned on.
 Nuclear repulsion after empirical dispersion term =     3011.1670385884 Hartrees.
 ------------------------------------------------------------------------------
 Polarizable Continuum Model (PCM)
 =================================
 Model                : PCM.
 Atomic radii         : SMD-Coulomb.
 Polarization charges : Total charges.
 Charge compensation  : None.
 Solution method      : On-the-fly selection.
 Cavity type          : VdW (van der Waals Surface) (Alpha=1.000).
 Cavity algorithm     : GePol (No added spheres)
                        Default sphere list used, NSphG=   52.
                        Lebedev-Laikov grids with approx.  5.0 points / Ang**2.
                        Smoothing algorithm: York/Karplus (Gamma=1.0000).
                        Polarization charges: spherical gaussians, with
                                              point-specific exponents (IZeta= 3).
                        Self-potential: point-specific (ISelfS= 7).
                        Self-field    : sphere-specific E.n sum rule (ISelfD= 2).
 Solvent              : Acetone, Eps=  20.493000 Eps(inf)=   1.846337
 ------------------------------------------------------------------------------
 ------------------------------------------------------------------------------
 Atomic radii for non-electrostatic terms: SMD-CDS.
 ------------------------------------------------------------------------------
 Nuclear repulsion after PCM non-electrostatic terms =     3011.1606583338 Hartrees.
 One-electron integrals computed using PRISM.
   1 Symmetry operations used in ECPInt.
 ECPInt:  NShTT=   13203 NPrTT=   81964 LenC2=   11397 LenP2D=   39495.
 LDataN:  DoStor=T MaxTD1= 4 Len=   56
 NBasis=   436 RedAO= T EigKep=  4.35D-04  NBF=   436
 NBsUse=   436 1.00D-06 EigRej= -1.00D+00 NBFU=   436
 ExpMin= 2.30D-02 ExpMax= 5.48D+03 ExpMxC= 8.25D+02 IAcc=3 IRadAn=         5 AccDes= 0.00D+00
 Harris functional with IExCor=  402 and IRadAn=       5 diagonalized for initial guess.
 HarFok:  IExCor=  402 AccDes= 0.00D+00 IRadAn=         5 IDoV= 1 UseB2=F ITyADJ=14
 ICtDFT=  3500011 ScaDFX=  1.000000  1.000000  1.000000  1.000000
 FoFCou: FMM=F IPFlag=           0 FMFlag=      100000 FMFlg1=           0
         NFxFlg=           0 DoJE=T BraDBF=F KetDBF=T FulRan=T
         wScrn=  0.000000 ICntrl=       500 IOpCl=  0 I1Cent=   200000004 NGrid=           0
         NMat0=    1 NMatS0=      1 NMatT0=    0 NMatD0=    1 NMtDS0=    0 NMtDT0=    0
 Petite list used in FoFCou.
 Requested convergence on RMS density matrix=1.00D-08 within 128 cycles.
 Requested convergence on MAX density matrix=1.00D-06.
 Requested convergence on             energy=1.00D-06.
 No special actions if energy rises.
 Inv3:  Mode=1 IEnd=    40804032.
 Iteration    1 A*A^-1 deviation from unit magnitude is 3.22D-15 for   1271.
 Iteration    1 A*A^-1 deviation from orthogonality  is 2.11D-15 for   3197    840.
 Iteration    1 A^-1*A deviation from unit magnitude is 3.00D-15 for   1271.
 Iteration    1 A^-1*A deviation from orthogonality  is 4.86D-13 for   3415   1097.
 EnCoef did     5 forward-backward iterations
 Error on total polarization charges =  0.04474
 SCF Done:  E(RB3LYP) =  -1365.93352970     A.U. after   20 cycles
            NFock= 20  Conv=0.71D-08     -V/T= 2.0505
 SMD-CDS (non-electrostatic) energy       (kcal/mol) =      -4.00
 (included in total energy above)

 **********************************************************************

            Population analysis using the SCF Density.

 **********************************************************************

 Orbital symmetries:
       Occupied  (A) (A) (A) (A) (A) (A) (A) (A) (A) (A) (A) (A)
                 (A) (A) (A) (A) (A) (A) (A) (A) (A) (A) (A) (A)
                 (A) (A) (A) (A) (A) (A) (A) (A) (A) (A) (A) (A)
                 (A) (A) (A) (A) (A) (A) (A) (A) (A) (A) (A) (A)
                 (A) (A) (A) (A) (A) (A) (A) (A) (A) (A) (A) (A)
                 (A) (A) (A) (A) (A) (A) (A) (A) (A) (A) (A) (A)
                 (A) (A) (A) (A) (A) (A) (A) (A) (A) (A) (A) (A)
                 (A) (A) (A) (A) (A) (A) (A) (A) (A) (A) (A) (A)
                 (A) (A) (A) (A) (A) (A) (A) (A) (A)
       Virtual   (A) (A) (A) (A) (A) (A) (A) (A) (A) (A) (A) (A)
                 (A) (A) (A) (A) (A) (A) (A) (A) (A) (A) (A) (A)
                 (A) (A) (A) (A) (A) (A) (A) (A) (A) (A) (A) (A)
                 (A) (A) (A) (A) (A) (A) (A) (A) (A) (A) (A) (A)
                 (A) (A) (A) (A) (A) (A) (A) (A) (A) (A) (A) (A)
                 (A) (A) (A) (A) (A) (A) (A) (A) (A) (A) (A) (A)
                 (A) (A) (A) (A) (A) (A) (A) (A) (A) (A) (A) (A)
                 (A) (A) (A) (A) (A) (A) (A) (A) (A) (A) (A) (A)
                 (A) (A) (A) (A) (A) (A) (A) (A) (A) (A) (A) (A)
                 (A) (A) (A) (A) (A) (A) (A) (A) (A) (A) (A) (A)
                 (A) (A) (A) (A) (A) (A) (A) (A) (A) (A) (A) (A)
                 (A) (A) (A) (A) (A) (A) (A) (A) (A) (A) (A) (A)
                 (A) (A) (A) (A) (A) (A) (A) (A) (A) (A) (A) (A)
                 (A) (A) (A) (A) (A) (A) (A) (A) (A) (A) (A) (A)
                 (A) (A) (A) (A) (A) (A) (A) (A) (A) (A) (A) (A)
                 (A) (A) (A) (A) (A) (A) (A) (A) (A) (A) (A) (A)
                 (A) (A) (A) (A) (A) (A) (A) (A) (A) (A) (A) (A)
                 (A) (A) (A) (A) (A) (A) (A) (A) (A) (A) (A) (A)
                 (A) (A) (A) (A) (A) (A) (A) (A) (A) (A) (A) (A)
                 (A) (A) (A) (A) (A) (A) (A) (A) (A) (A) (A) (A)
                 (A) (A) (A) (A) (A) (A) (A) (A) (A) (A) (A) (A)
                 (A) (A) (A) (A) (A) (A) (A) (A) (A) (A) (A) (A)
                 (A) (A) (A) (A) (A) (A) (A) (A) (A) (A) (A) (A)
                 (A) (A) (A) (A) (A) (A) (A) (A) (A) (A) (A) (A)
                 (A) (A) (A) (A) (A) (A) (A) (A) (A) (A) (A) (A)
                 (A) (A) (A) (A) (A) (A) (A) (A) (A) (A) (A) (A)
                 (A) (A) (A) (A) (A) (A) (A) (A) (A) (A) (A) (A)
                 (A) (A) (A) (A) (A) (A) (A)
 The electronic state is 1-A.
 Alpha  occ. eigenvalues --  -19.16753 -19.16611 -19.12823 -19.12797 -14.41178
 Alpha  occ. eigenvalues --  -14.40872 -14.40555 -14.40514 -10.23686 -10.23539
 Alpha  occ. eigenvalues --  -10.21360 -10.21292 -10.18660 -10.18487 -10.17643
 Alpha  occ. eigenvalues --  -10.17617 -10.17578 -10.17535 -10.17517 -10.17470
 Alpha  occ. eigenvalues --  -10.17469 -10.17406 -10.17073 -10.16835 -10.16754
 Alpha  occ. eigenvalues --  -10.15370  -3.74585  -2.44617  -2.43793  -2.42760
 Alpha  occ. eigenvalues --   -1.09108  -1.08562  -1.07020  -1.06425  -0.90653
 Alpha  occ. eigenvalues --   -0.89472  -0.85877  -0.81943  -0.80982  -0.80643
 Alpha  occ. eigenvalues --   -0.75370  -0.74670  -0.74300  -0.74208  -0.70660
 Alpha  occ. eigenvalues --   -0.70530  -0.68329  -0.66429  -0.62347  -0.60362
 Alpha  occ. eigenvalues --   -0.60160  -0.58846  -0.54935  -0.53625  -0.52986
 Alpha  occ. eigenvalues --   -0.52143  -0.51403  -0.50930  -0.49497  -0.49073
 Alpha  occ. eigenvalues --   -0.47730  -0.46973  -0.46704  -0.46003  -0.45604
 Alpha  occ. eigenvalues --   -0.44577  -0.43431  -0.42789  -0.42494  -0.42297
 Alpha  occ. eigenvalues --   -0.42109  -0.41988  -0.41387  -0.40879  -0.40619
 Alpha  occ. eigenvalues --   -0.40122  -0.39534  -0.38977  -0.38885  -0.38153
 Alpha  occ. eigenvalues --   -0.38062  -0.37854  -0.37604  -0.37370  -0.36725
 Alpha  occ. eigenvalues --   -0.36415  -0.34807  -0.34616  -0.34306  -0.33492
 Alpha  occ. eigenvalues --   -0.33137  -0.30994  -0.30576  -0.28323  -0.27964
 Alpha  occ. eigenvalues --   -0.27743  -0.26781  -0.26446  -0.25242  -0.25110
 Alpha  occ. eigenvalues --   -0.25061  -0.22473  -0.20356  -0.19813  -0.19464
 Alpha virt. eigenvalues --   -0.09424  -0.03880  -0.03337  -0.00509   0.00128
 Alpha virt. eigenvalues --    0.00363   0.02615   0.02799   0.03251   0.06572
 Alpha virt. eigenvalues --    0.06670   0.06936   0.07791   0.11150   0.12489
 Alpha virt. eigenvalues --    0.12739   0.13425   0.14393   0.14808   0.14883
 Alpha virt. eigenvalues --    0.15567   0.15747   0.16434   0.16782   0.17259
 Alpha virt. eigenvalues --    0.17412   0.17722   0.18104   0.18451   0.18827
 Alpha virt. eigenvalues --    0.19228   0.19523   0.20239   0.20360   0.20703
 Alpha virt. eigenvalues --    0.22033   0.22860   0.23412   0.24005   0.24764
 Alpha virt. eigenvalues --    0.24949   0.25032   0.25721   0.26387   0.26965
 Alpha virt. eigenvalues --    0.27541   0.27914   0.29055   0.29667   0.29995
 Alpha virt. eigenvalues --    0.30142   0.31622   0.32093   0.33924   0.34509
 Alpha virt. eigenvalues --    0.35099   0.36015   0.36685   0.40021   0.41120
 Alpha virt. eigenvalues --    0.42048   0.42663   0.42860   0.44688   0.46922
 Alpha virt. eigenvalues --    0.48287   0.49570   0.51024   0.51904   0.53018
 Alpha virt. eigenvalues --    0.53879   0.53905   0.54830   0.55459   0.55646
 Alpha virt. eigenvalues --    0.56111   0.57005   0.57179   0.58290   0.58522
 Alpha virt. eigenvalues --    0.59009   0.59703   0.60390   0.60411   0.60763
 Alpha virt. eigenvalues --    0.61641   0.62015   0.62525   0.63159   0.63776
 Alpha virt. eigenvalues --    0.64347   0.65255   0.66240   0.66882   0.67783
 Alpha virt. eigenvalues --    0.68424   0.68978   0.69590   0.69758   0.70274
 Alpha virt. eigenvalues --    0.71238   0.71457   0.72803   0.74102   0.74805
 Alpha virt. eigenvalues --    0.75484   0.75807   0.75990   0.77739   0.78544
 Alpha virt. eigenvalues --    0.79782   0.80548   0.81951   0.82299   0.83566
 Alpha virt. eigenvalues --    0.84039   0.84052   0.84909   0.85046   0.85157
 Alpha virt. eigenvalues --    0.85449   0.86039   0.86659   0.87117   0.88205
 Alpha virt. eigenvalues --    0.88499   0.88713   0.89223   0.90099   0.90694
 Alpha virt. eigenvalues --    0.90823   0.91490   0.92185   0.92523   0.93265
 Alpha virt. eigenvalues --    0.93375   0.94071   0.94597   0.94788   0.95359
 Alpha virt. eigenvalues --    0.96351   0.96570   0.97125   0.97891   0.98335
 Alpha virt. eigenvalues --    0.99660   1.00707   1.01215   1.02188   1.02451
 Alpha virt. eigenvalues --    1.03519   1.03920   1.04490   1.05696   1.06164
 Alpha virt. eigenvalues --    1.06883   1.08244   1.08377   1.10631   1.10798
 Alpha virt. eigenvalues --    1.12939   1.13429   1.14148   1.15533   1.15935
 Alpha virt. eigenvalues --    1.16523   1.18923   1.19776   1.20991   1.21523
 Alpha virt. eigenvalues --    1.22001   1.23283   1.24602   1.26015   1.26617
 Alpha virt. eigenvalues --    1.27521   1.28204   1.29284   1.30281   1.31397
 Alpha virt. eigenvalues --    1.33292   1.34668   1.35045   1.36020   1.36441
 Alpha virt. eigenvalues --    1.37212   1.37844   1.38603   1.38966   1.39647
 Alpha virt. eigenvalues --    1.40079   1.40797   1.42638   1.43140   1.44504
 Alpha virt. eigenvalues --    1.44703   1.45694   1.47129   1.47682   1.49785
 Alpha virt. eigenvalues --    1.49933   1.50725   1.51850   1.52792   1.53477
 Alpha virt. eigenvalues --    1.56782   1.57185   1.60798   1.62461   1.64434
 Alpha virt. eigenvalues --    1.65191   1.67459   1.72069   1.74019   1.74855
 Alpha virt. eigenvalues --    1.75370   1.76224   1.76774   1.77714   1.78528
 Alpha virt. eigenvalues --    1.79385   1.79596   1.80448   1.80771   1.81152
 Alpha virt. eigenvalues --    1.81860   1.82633   1.83616   1.84085   1.86195
 Alpha virt. eigenvalues --    1.86821   1.87740   1.89061   1.89920   1.90212
 Alpha virt. eigenvalues --    1.91654   1.92533   1.93389   1.94449   1.95032
 Alpha virt. eigenvalues --    1.96179   1.97290   1.98601   1.99076   2.00138
 Alpha virt. eigenvalues --    2.00314   2.01398   2.02137   2.02390   2.05513
 Alpha virt. eigenvalues --    2.06832   2.08579   2.10523   2.11891   2.12675
 Alpha virt. eigenvalues --    2.12861   2.13590   2.14575   2.14731   2.16034
 Alpha virt. eigenvalues --    2.16410   2.17566   2.18712   2.19293   2.20382
 Alpha virt. eigenvalues --    2.21831   2.23867   2.24185   2.27301   2.28145
 Alpha virt. eigenvalues --    2.28385   2.29468   2.30278   2.31167   2.31919
 Alpha virt. eigenvalues --    2.32843   2.33172   2.33479   2.33787   2.34108
 Alpha virt. eigenvalues --    2.34653   2.35059   2.36331   2.37646   2.38311
 Alpha virt. eigenvalues --    2.41757   2.43909   2.46613   2.48998   2.51666
 Alpha virt. eigenvalues --    2.51813   2.53161   2.53371   2.54295   2.54737
 Alpha virt. eigenvalues --    2.56305   2.57222   2.58675   2.59342   2.60814
 Alpha virt. eigenvalues --    2.63937   2.64185   2.65080   2.66153   2.66535
 Alpha virt. eigenvalues --    2.67539   2.67896   2.71586   2.74431   2.76006
 Alpha virt. eigenvalues --    2.76349   2.77430   2.78509   2.82013   2.85428
 Alpha virt. eigenvalues --    2.87202   2.90817   2.91613   2.93437   2.96530
 Alpha virt. eigenvalues --    3.02439   3.05110   3.06178   3.08797   3.10349
 Alpha virt. eigenvalues --    3.10831   3.21255   3.29615   3.32538   3.46423
 Alpha virt. eigenvalues --   21.77053
          Condensed to atoms (all electrons):
 Mulliken charges:
               1
     1  Co   0.329574
     2  N   -0.169305
     3  O   -0.572580
     4  C    0.326323
     5  C   -0.546518
     6  H    0.205110
     7  H    0.199418
     8  H    0.200308
     9  N   -0.065161
    10  O   -0.555395
    11  C    0.268789
    12  C   -0.547009
    13  H    0.190400
    14  H    0.189617
    15  H    0.187135
    16  N   -0.171107
    17  O   -0.571196
    18  C    0.331744
    19  C   -0.548237
    20  H    0.204474
    21  H    0.198931
    22  H    0.199411
    23  N   -0.090879
    24  O   -0.550078
    25  C    0.273663
    26  C   -0.549964
    27  H    0.186888
    28  H    0.189869
    29  H    0.187728
    30  H    0.471617
    31  H    0.469725
    32  C   -0.396797
    33  H    0.186804
    34  H    0.191109
    35  C    0.235187
    36  C   -0.267901
    37  H    0.154015
    38  C   -0.558682
    39  H    0.163084
    40  H    0.194714
    41  H    0.164581
    42  C    0.148912
    43  C   -0.203322
    44  C   -0.202509
    45  C   -0.154011
    46  H    0.153642
    47  C   -0.159282
    48  H    0.166118
    49  C   -0.151167
    50  H    0.154285
    51  H    0.154231
    52  H    0.153694
 Sum of Mulliken charges =  -0.00000
 Mulliken charges with hydrogens summed into heavy atoms:
               1
     1  Co   0.329574
     2  N   -0.169305
     3  O   -0.100964
     4  C    0.326323
     5  C    0.058318
     9  N   -0.065161
    10  O   -0.555395
    11  C    0.268789
    12  C    0.020143
    16  N   -0.171107
    17  O   -0.101471
    18  C    0.331744
    19  C    0.054579
    23  N   -0.090879
    24  O   -0.550078
    25  C    0.273663
    26  C    0.014520
    32  C   -0.018883
    35  C    0.235187
    36  C   -0.113886
    38  C   -0.036303
    42  C    0.148912
    43  C   -0.049680
    44  C   -0.036391
    45  C    0.000274
    47  C   -0.005051
    49  C    0.002527
 Electronic spatial extent (au):  <R**2>=          10299.8650
 Charge=             -0.0000 electrons
 Dipole moment (field-independent basis, Debye):
    X=             -0.1944    Y=              0.1409    Z=              0.9634  Tot=              0.9928
 Quadrupole moment (field-independent basis, Debye-Ang):
   XX=           -132.4315   YY=           -176.6153   ZZ=           -161.9077
   XY=             11.5246   XZ=              7.1454   YZ=              9.6672
 Traceless Quadrupole moment (field-independent basis, Debye-Ang):
   XX=             24.5533   YY=            -19.6304   ZZ=             -4.9229
   XY=             11.5246   XZ=              7.1454   YZ=              9.6672
 Octapole moment (field-independent basis, Debye-Ang**2):
  XXX=           -120.4744  YYY=              2.8276  ZZZ=             33.9810  XYY=              7.8672
  XXY=            -27.1044  XXZ=             -7.3728  XZZ=            -17.6954  YZZ=             26.3256
  YYZ=              9.9456  XYZ=            -27.4100
 Hexadecapole moment (field-independent basis, Debye-Ang**3):
 XXXX=          -8128.9863 YYYY=          -2410.7159 ZZZZ=          -1834.7905 XXXY=            140.8002
 XXXZ=             51.6344 YYYX=             40.9495 YYYZ=             13.6482 ZZZX=             61.7551
 ZZZY=             14.3472 XXYY=          -1973.6849 XXZZ=          -1861.8406 YYZZ=           -687.5170
 XXYZ=            -40.5461 YYXZ=             23.1268 ZZXY=             65.3985
 N-N= 3.011160658334D+03 E-N=-9.213663705914D+03  KE= 1.300236900426D+03
 Unable to Open any file for archive entry.
 1\1\GINC-N204\SP\RB3LYP\GenECP\C18H25Co1N4O4\CJD\02-Mar-2023\0\\# B3LY
 P/genecp em=GD3BJ int=fine scrf=(smd,solvent=acetone)\\Template\\0,1\C
 o,0,-1.3256043081,-0.2026236727,-0.2412136957\N,0,-2.4582963939,1.2780
 077194,-0.4498328536\O,0,-2.1751839318,2.4220192101,-1.1360259721\C,0,
 -3.6209986883,1.1557341127,0.1071261586\C,0,-4.6925473724,2.1890323053
 ,0.0334899576\H,0,-4.836883941,2.6395008877,1.0142242797\H,0,-5.633155
 8997,1.7380548985,-0.273805853\H,0,-4.4053032659,2.9636583807,-0.67280
 13242\N,0,-2.732573915,-0.839758566,0.8294246062\O,0,-2.7099747034,-1.
 9783304781,1.4432204376\C,0,-3.7887987744,-0.0753137048,0.8391293039\C
 ,0,-5.0522067797,-0.424454732,1.5585897538\H,0,-4.8985860382,-1.361579
 2935,2.0897160561\H,0,-5.8768914666,-0.5454275353,0.8576792556\H,0,-5.
 3152370066,0.3551039949,2.2704641713\N,0,-0.3090181401,-1.7862738018,-
 0.2385638104\O,0,-0.4788113136,-2.8511110423,0.6000931796\C,0,0.621983
 7353,-1.8424249991,-1.1354241076\C,0,1.5254669633,-3.0116681612,-1.328
 1158082\H,0,2.5421591308,-2.7385912791,-1.0501564737\H,0,1.5305928482,
 -3.3188762292,-2.3714944217\H,0,1.1948840428,-3.8367712104,-0.70269134
 53\N,0,-0.0769243925,0.3062102652,-1.5703546163\O,0,-0.0694708612,1.46
 07825131,-2.1651751658\C,0,0.7451712387,-0.6417705062,-1.9235490129\C,
 0,1.7540613346,-0.4953796629,-3.0171533389\H,0,2.7604584196,-0.6408869
 067,-2.6295976902\H,0,1.6698320302,0.5058101815,-3.4349682516\H,0,1.57
 81207605,-1.2252057812,-3.8059189912\H,0,-1.2859269385,2.2096148556,-1
 .6232870187\H,0,-1.3740030217,-2.6540096328,1.0744054983\C,0,-0.418113
 2468,0.5274202076,1.4152121507\H,0,-1.0666997084,1.3371100824,1.746877
 1501\H,0,-0.4512924358,-0.3187700377,2.100423475\C,0,0.9318351607,0.96
 31712429,1.1112691717\C,0,1.9580227513,0.0885824217,1.2849565893\H,0,1
 .7091516207,-0.8776489157,1.7079578967\C,0,1.1200308681,2.3916181568,0
 .6929057023\H,0,2.1006246388,2.7571640849,0.9845703824\H,0,1.016758707
 2,2.4945691244,-0.3865129166\H,0,0.3564321923,3.0159032544,1.150331880
 7\C,0,3.3703301391,0.2696030731,1.0226970959\C,0,4.2917598061,-0.44305
 56983,1.8018304959\C,0,3.8654660778,1.0750607559,-0.0080073455\C,0,5.6
 499363421,-0.3191909314,1.59064765\H,0,3.925502496,-1.0852586014,2.589
 9768971\C,0,5.2262432435,1.1834465389,-0.2268523855\H,0,3.1799749816,1
 .5801563652,-0.6676930214\C,0,6.1249141104,0.4999633904,0.5768192973\H
 ,0,6.3436333816,-0.8667232151,2.2121168204\H,0,5.5892321765,1.80405748
 77,-1.0334160774\H,0,7.1872712581,0.5941287747,0.4072093784\\Version=E
 S64L-G16RevC.01\State=1-A\HF=-1365.9335297\RMSD=7.102e-09\Dipole=-0.08
 24412,-0.1148363,-0.3641381\Quadrupole=17.6241724,-11.3806251,-6.24354
 73,-10.1460597,-3.7371788,8.7549287\PG=C01 [X(C18H25Co1N4O4)]\\@
 The archive entry for this job was punched.


 TWO ROADS DIVERGED IN A WOOD, AND I--
 I TOOK THE ONE LESS TRAVELED BY,
 AND THAT HAS MADE ALL THE DIFFERENCE.

                       -- ROBERT FROST
 Job cpu time:       0 days  0 hours 19 minutes 44.4 seconds.
 Elapsed time:       0 days  0 hours  1 minutes 15.8 seconds.
 File lengths (MBytes):  RWF=    331 Int=      0 D2E=      0 Chk=     14 Scr=      1
 Normal termination of Gaussian 16 at Thu Mar  2 08:06:15 2023.
