 Entering Gaussian System, Link 0=g16
 Initial command:
 /opt/local/g16/l1.exe "/data/tmp/cjd/Gau-65495.inp" -scrdir="/data/tmp/cjd/"
 Entering Link 1 = /opt/local/g16/l1.exe PID=     65496.
  
 Copyright (c) 1988-2019, Gaussian, Inc.  All Rights Reserved.
  
 This is part of the Gaussian(R) 16 program.  It is based on
 the Gaussian(R) 09 system (copyright 2009, Gaussian, Inc.),
 the Gaussian(R) 03 system (copyright 2003, Gaussian, Inc.),
 the Gaussian(R) 98 system (copyright 1998, Gaussian, Inc.),
 the Gaussian(R) 94 system (copyright 1995, Gaussian, Inc.),
 the Gaussian 92(TM) system (copyright 1992, Gaussian, Inc.),
 the Gaussian 90(TM) system (copyright 1990, Gaussian, Inc.),
 the Gaussian 88(TM) system (copyright 1988, Gaussian, Inc.),
 the Gaussian 86(TM) system (copyright 1986, Carnegie Mellon
 University), and the Gaussian 82(TM) system (copyright 1983,
 Carnegie Mellon University). Gaussian is a federally registered
 trademark of Gaussian, Inc.
  
 This software contains proprietary and confidential information,
 including trade secrets, belonging to Gaussian, Inc.
  
 This software is provided under written license and may be
 used, copied, transmitted, or stored only in accord with that
 written license.
  
 The following legend is applicable only to US Government
 contracts under FAR:
  
                    RESTRICTED RIGHTS LEGEND
  
 Use, reproduction and disclosure by the US Government is
 subject to restrictions as set forth in subparagraphs (a)
 and (c) of the Commercial Computer Software - Restricted
 Rights clause in FAR 52.227-19.
  
 Gaussian, Inc.
 340 Quinnipiac St., Bldg. 40, Wallingford CT 06492
  
  
 ---------------------------------------------------------------
 Warning -- This program may not be used in any manner that
 competes with the business of Gaussian, Inc. or will provide
 assistance to any competitor of Gaussian, Inc.  The licensee
 of this program is prohibited from giving any competitor of
 Gaussian, Inc. access to this program.  By using this program,
 the user acknowledges that Gaussian, Inc. is engaged in the
 business of creating and licensing software in the field of
 computational chemistry and represents and warrants to the
 licensee that it is not a competitor of Gaussian, Inc. and that
 it will not use this program in any manner prohibited above.
 ---------------------------------------------------------------
  

 Cite this work as:
 Gaussian 16, Revision C.01,
 M. J. Frisch, G. W. Trucks, H. B. Schlegel, G. E. Scuseria, 
 M. A. Robb, J. R. Cheeseman, G. Scalmani, V. Barone, 
 G. A. Petersson, H. Nakatsuji, X. Li, M. Caricato, A. V. Marenich, 
 J. Bloino, B. G. Janesko, R. Gomperts, B. Mennucci, H. P. Hratchian, 
 J. V. Ortiz, A. F. Izmaylov, J. L. Sonnenberg, D. Williams-Young, 
 F. Ding, F. Lipparini, F. Egidi, J. Goings, B. Peng, A. Petrone, 
 T. Henderson, D. Ranasinghe, V. G. Zakrzewski, J. Gao, N. Rega, 
 G. Zheng, W. Liang, M. Hada, M. Ehara, K. Toyota, R. Fukuda, 
 J. Hasegawa, M. Ishida, T. Nakajima, Y. Honda, O. Kitao, H. Nakai, 
 T. Vreven, K. Throssell, J. A. Montgomery, Jr., J. E. Peralta, 
 F. Ogliaro, M. J. Bearpark, J. J. Heyd, E. N. Brothers, K. N. Kudin, 
 V. N. Staroverov, T. A. Keith, R. Kobayashi, J. Normand, 
 K. Raghavachari, A. P. Rendell, J. C. Burant, S. S. Iyengar, 
 J. Tomasi, M. Cossi, J. M. Millam, M. Klene, C. Adamo, R. Cammi, 
 J. W. Ochterski, R. L. Martin, K. Morokuma, O. Farkas, 
 J. B. Foresman, and D. J. Fox, Gaussian, Inc., Wallingford CT, 2019.
 
 ******************************************
 Gaussian 16:  ES64L-G16RevC.01  3-Jul-2019
                 2-Mar-2023 
 ******************************************
 %nproc=16
 Will use up to   16 processors via shared memory.
 %mem=60GB
 -----------------------------------------------------------
 # B3LYP/genecp em=GD3BJ int=fine scrf=(smd,solvent=acetone)
 -----------------------------------------------------------
 1/38=1,172=1/1;
 2/12=2,17=6,18=5,40=1/2;
 3/5=7,11=2,16=1,17=8,25=1,30=1,70=32201,72=19,74=-5,75=-4,124=41/1,2,3;
 4//1;
 5/5=2,38=5,53=19/2;
 6/7=2,8=2,9=2,10=2,28=1/1;
 99/5=1,9=1/99;
 --------
 Template
 --------
 Symbolic Z-matrix:
 Charge =  0 Multiplicity = 1
 Co                   -1.27978  -0.06348  -0.46454 
 N                    -2.85158   0.95968  -0.49403 
 O                    -3.23777   1.8123   -1.48558 
 C                    -3.63084   0.79574   0.52626 
 C                    -4.94895   1.47354   0.68306 
 H                    -4.88138   2.23031   1.46316 
 H                    -5.71385   0.75623   0.97036 
 H                    -5.22442   1.95574  -0.25131 
 N                    -1.91813  -0.56499   1.24276 
 O                    -1.28844  -1.35711   2.05442 
 C                    -3.09635  -0.08866   1.53334 
 C                    -3.82319  -0.40065   2.80243 
 H                    -4.06955   0.51386   3.33793 
 H                    -3.18139  -1.02176   3.42405 
 H                    -4.74655  -0.94033   2.59687 
 N                     0.12538  -1.31785  -0.53238 
 O                     0.57377  -2.0807    0.50365 
 C                     0.66833  -1.46341  -1.69725 
 C                     1.76964  -2.42361  -1.99103 
 H                     2.63624  -1.88898  -2.37373 
 H                     1.45345  -3.14018  -2.74699 
 H                     2.04423  -2.95171  -1.0819 
 N                    -0.79993   0.21964  -2.26089 
 O                    -1.37806   1.08176  -3.03905 
 C                     0.12315  -0.58719  -2.70548 
 C                     0.59845  -0.59492  -4.12325 
 H                     1.65924  -0.35643  -4.17301 
 H                     0.037     0.15176  -4.68129 
 H                     0.44379  -1.57225  -4.57703 
 H                    -2.53742   1.66191  -2.23574 
 H                    -0.09764  -1.87834   1.26792 
 C                    -0.23917   1.53427   0.22631 
 H                    -0.50683   2.33308  -0.46454 
 H                    -0.66831   1.69324   1.21542 
 C                     1.18983   1.28611   0.26825 
 C                     1.73159   0.66859   1.34978 
 H                     1.04291   0.31288   2.10624 
 C                     1.99366   1.74146  -0.91615 
 H                     1.38391   1.70788  -1.81448 
 H                     2.30935   2.77439  -0.77338 
 H                     2.87689   1.12493  -1.05702 
 C                     3.11884   0.33137   1.60213 
 C                     4.19412   1.13964   1.22236 
 C                     3.39571  -0.85484   2.29312 
 C                     5.49456   0.75894   1.49837 
 H                     4.01      2.09041   0.74999 
 C                     4.6961   -1.24021   2.54928 
 H                     2.5742   -1.48477   2.59993 
 C                     5.75343  -0.4358    2.15043 
 H                     6.31295   1.4007    1.20521 
 H                     4.88932  -2.16768   3.06883 
 H                     6.77089  -0.7332    2.35765 
 
 Stoichiometry    C18H25CoN4O4
 Framework group  C1[X(C18H25CoN4O4)]
 Deg. of freedom   150
 Full point group                 C1      NOp   1
 Largest Abelian subgroup         C1      NOp   1
 Largest concise Abelian subgroup C1      NOp   1
                         Standard orientation:                         
 ---------------------------------------------------------------------
 Center     Atomic      Atomic             Coordinates (Angstroms)
 Number     Number       Type             X           Y           Z
 ---------------------------------------------------------------------
      1         27           0        1.361429    0.223911    0.218245
      2          7           0        3.013695   -0.029337   -0.632743
      3          8           0        3.661394    0.877952   -1.417981
      4          6           0        3.574473   -1.174344   -0.410051
      5          6           0        4.908018   -1.565696   -0.948497
      6          1           0        4.783032   -2.318739   -1.725097
      7          1           0        5.527077   -1.988631   -0.161068
      8          1           0        5.397317   -0.695504   -1.378373
      9          7           0        1.624534   -1.572041    0.746640
     10          8           0        0.777612   -2.258139    1.450020
     11          6           0        2.775556   -2.070108    0.390815
     12          6           0        3.224405   -3.450671    0.749725
     13          1           0        3.467338   -4.019660   -0.145267
     14          1           0        2.418218   -3.947258    1.285981
     15          1           0        4.106169   -3.417172    1.388053
     16          7           0       -0.135252    0.542107    1.318787
     17          8           0       -0.842115   -0.397425    2.007250
     18          6           0       -0.472265    1.785716    1.431861
     19          6           0       -1.599555    2.271789    2.276910
     20          1           0       -2.320555    2.806509    1.662486
     21          1           0       -1.231487    2.956148    3.039212
     22          1           0       -2.088395    1.426141    2.753079
     23          7           0        1.245836    2.078181   -0.074376
     24          8           0        2.043845    2.740854   -0.853519
     25          6           0        0.336436    2.680652    0.640284
     26          6           0        0.125896    4.161054    0.628993
     27          1           0       -0.876729    4.402800    0.281232
     28          1           0        0.855582    4.609989   -0.041964
     29          1           0        0.253608    4.576853    1.626903
     30          1           0        3.095364    1.742220   -1.325786
     31          1           0       -0.301330   -1.270194    1.860032
     32          6           0        0.391541   -0.262947   -1.495006
     33          1           0        0.863464    0.369962   -2.245831
     34          1           0        0.650325   -1.313040   -1.629548
     35          6           0       -1.039952   -0.045873   -1.399750
     36          6           0       -1.830657   -1.012881   -0.866613
     37          1           0       -1.331621   -1.882491   -0.457016
     38          6           0       -1.563890    1.265705   -1.911150
     39          1           0       -0.809700    2.038591   -1.793824
     40          1           0       -1.787133    1.185087   -2.974476
     41          1           0       -2.468486    1.562746   -1.388160
     42          6           0       -3.268769   -1.010524   -0.683030
     43          6           0       -4.164897   -0.440185   -1.591549
     44          6           0       -3.791393   -1.642869    0.451971
     45          6           0       -5.527054   -0.476932   -1.356104
     46          1           0       -3.797616   -0.006616   -2.507035
     47          6           0       -5.150438   -1.660119    0.692495
     48          1           0       -3.111088   -2.095034    1.158059
     49          6           0       -6.026001   -1.074276   -0.209884
     50          1           0       -6.205493   -0.038735   -2.073928
     51          1           0       -5.532601   -2.138376    1.582829
     52          1           0       -7.090127   -1.094451   -0.025940
 ---------------------------------------------------------------------
 Rotational constants (GHZ):           0.2827768           0.1313188           0.1110901
 General basis read from cards:  (5D, 7F)
 ======================================================================================================
                                       Pseudopotential Parameters
 ======================================================================================================
  Center     Atomic      Valence      Angular      Power
  Number     Number     Electrons     Momentum     of R      Exponent        Coefficient   SO-Coeffient
 ======================================================================================================
    1         27           17
                                      D and up 
                                                     1      434.1076104      -10.00000000    0.00000000
                                                     2       78.8402758      -66.72402760    0.00000000
                                                     2       19.6037749      -11.71922430    0.00000000
                                      S - D
                                                     0      151.2307582        3.00000000    0.00000000
                                                     1      169.6790026       20.15531100    0.00000000
                                                     2       64.9909423      413.37622440    0.00000000
                                                     2       12.5076287      133.87277050    0.00000000
                                      P - D
                                                     0       92.7319924        5.00000000    0.00000000
                                                     1      121.1910183        6.18923530    0.00000000
                                                     2       48.6265909      326.32159190    0.00000000
                                                     2       11.9966971       73.87889700    0.00000000
    2          7
                                   No pseudopotential on this center.
    3          8
                                   No pseudopotential on this center.
    4          6
                                   No pseudopotential on this center.
    5          6
                                   No pseudopotential on this center.
    6          1
                                   No pseudopotential on this center.
    7          1
                                   No pseudopotential on this center.
    8          1
                                   No pseudopotential on this center.
    9          7
                                   No pseudopotential on this center.
   10          8
                                   No pseudopotential on this center.
   11          6
                                   No pseudopotential on this center.
   12          6
                                   No pseudopotential on this center.
   13          1
                                   No pseudopotential on this center.
   14          1
                                   No pseudopotential on this center.
   15          1
                                   No pseudopotential on this center.
   16          7
                                   No pseudopotential on this center.
   17          8
                                   No pseudopotential on this center.
   18          6
                                   No pseudopotential on this center.
   19          6
                                   No pseudopotential on this center.
   20          1
                                   No pseudopotential on this center.
   21          1
                                   No pseudopotential on this center.
   22          1
                                   No pseudopotential on this center.
   23          7
                                   No pseudopotential on this center.
   24          8
                                   No pseudopotential on this center.
   25          6
                                   No pseudopotential on this center.
   26          6
                                   No pseudopotential on this center.
   27          1
                                   No pseudopotential on this center.
   28          1
                                   No pseudopotential on this center.
   29          1
                                   No pseudopotential on this center.
   30          1
                                   No pseudopotential on this center.
   31          1
                                   No pseudopotential on this center.
   32          6
                                   No pseudopotential on this center.
   33          1
                                   No pseudopotential on this center.
   34          1
                                   No pseudopotential on this center.
   35          6
                                   No pseudopotential on this center.
   36          6
                                   No pseudopotential on this center.
   37          1
                                   No pseudopotential on this center.
   38          6
                                   No pseudopotential on this center.
   39          1
                                   No pseudopotential on this center.
   40          1
                                   No pseudopotential on this center.
   41          1
                                   No pseudopotential on this center.
   42          6
                                   No pseudopotential on this center.
   43          6
                                   No pseudopotential on this center.
   44          6
                                   No pseudopotential on this center.
   45          6
                                   No pseudopotential on this center.
   46          1
                                   No pseudopotential on this center.
   47          6
                                   No pseudopotential on this center.
   48          1
                                   No pseudopotential on this center.
   49          6
                                   No pseudopotential on this center.
   50          1
                                   No pseudopotential on this center.
   51          1
                                   No pseudopotential on this center.
   52          1
                                   No pseudopotential on this center.
 ======================================================================================================
 There are   464 symmetry adapted cartesian basis functions of A   symmetry.
 There are   436 symmetry adapted basis functions of A   symmetry.
   436 basis functions,   880 primitive gaussians,   464 cartesian basis functions
   105 alpha electrons      105 beta electrons
       nuclear repulsion energy      3002.8973683913 Hartrees.
 NAtoms=   52 NActive=   52 NUniq=   52 SFac= 1.00D+00 NAtFMM=   60 NAOKFM=F Big=F
 Integral buffers will be    131072 words long.
 Raffenetti 2 integral format.
 Two-electron integral symmetry is turned on.
 Nuclear repulsion after empirical dispersion term =     3002.7727883084 Hartrees.
 ------------------------------------------------------------------------------
 Polarizable Continuum Model (PCM)
 =================================
 Model                : PCM.
 Atomic radii         : SMD-Coulomb.
 Polarization charges : Total charges.
 Charge compensation  : None.
 Solution method      : On-the-fly selection.
 Cavity type          : VdW (van der Waals Surface) (Alpha=1.000).
 Cavity algorithm     : GePol (No added spheres)
                        Default sphere list used, NSphG=   52.
                        Lebedev-Laikov grids with approx.  5.0 points / Ang**2.
                        Smoothing algorithm: York/Karplus (Gamma=1.0000).
                        Polarization charges: spherical gaussians, with
                                              point-specific exponents (IZeta= 3).
                        Self-potential: point-specific (ISelfS= 7).
                        Self-field    : sphere-specific E.n sum rule (ISelfD= 2).
 Solvent              : Acetone, Eps=  20.493000 Eps(inf)=   1.846337
 ------------------------------------------------------------------------------
 ------------------------------------------------------------------------------
 Atomic radii for non-electrostatic terms: SMD-CDS.
 ------------------------------------------------------------------------------
 Nuclear repulsion after PCM non-electrostatic terms =     3002.7663069102 Hartrees.
 One-electron integrals computed using PRISM.
   1 Symmetry operations used in ECPInt.
 ECPInt:  NShTT=   13203 NPrTT=   81964 LenC2=   11345 LenP2D=   39373.
 LDataN:  DoStor=T MaxTD1= 4 Len=   56
 NBasis=   436 RedAO= T EigKep=  4.38D-04  NBF=   436
 NBsUse=   436 1.00D-06 EigRej= -1.00D+00 NBFU=   436
 ExpMin= 2.30D-02 ExpMax= 5.48D+03 ExpMxC= 8.25D+02 IAcc=3 IRadAn=         5 AccDes= 0.00D+00
 Harris functional with IExCor=  402 and IRadAn=       5 diagonalized for initial guess.
 HarFok:  IExCor=  402 AccDes= 0.00D+00 IRadAn=         5 IDoV= 1 UseB2=F ITyADJ=14
 ICtDFT=  3500011 ScaDFX=  1.000000  1.000000  1.000000  1.000000
 FoFCou: FMM=F IPFlag=           0 FMFlag=      100000 FMFlg1=           0
         NFxFlg=           0 DoJE=T BraDBF=F KetDBF=T FulRan=T
         wScrn=  0.000000 ICntrl=       500 IOpCl=  0 I1Cent=   200000004 NGrid=           0
         NMat0=    1 NMatS0=      1 NMatT0=    0 NMatD0=    1 NMtDS0=    0 NMtDT0=    0
 Petite list used in FoFCou.
 Requested convergence on RMS density matrix=1.00D-08 within 128 cycles.
 Requested convergence on MAX density matrix=1.00D-06.
 Requested convergence on             energy=1.00D-06.
 No special actions if energy rises.
 Inv3:  Mode=1 IEnd=    40538928.
 Iteration    1 A*A^-1 deviation from unit magnitude is 3.11D-15 for    739.
 Iteration    1 A*A^-1 deviation from orthogonality  is 2.66D-15 for   2285    731.
 Iteration    1 A^-1*A deviation from unit magnitude is 3.11D-15 for   1347.
 Iteration    1 A^-1*A deviation from orthogonality  is 2.29D-14 for   2516   2478.
 EnCoef did     5 forward-backward iterations
 Restarting incremental Fock formation.
 Error on total polarization charges =  0.04571
 SCF Done:  E(RB3LYP) =  -1365.93176346     A.U. after   21 cycles
            NFock= 21  Conv=0.25D-08     -V/T= 2.0505
 SMD-CDS (non-electrostatic) energy       (kcal/mol) =      -4.07
 (included in total energy above)

 **********************************************************************

            Population analysis using the SCF Density.

 **********************************************************************

 Orbital symmetries:
       Occupied  (A) (A) (A) (A) (A) (A) (A) (A) (A) (A) (A) (A)
                 (A) (A) (A) (A) (A) (A) (A) (A) (A) (A) (A) (A)
                 (A) (A) (A) (A) (A) (A) (A) (A) (A) (A) (A) (A)
                 (A) (A) (A) (A) (A) (A) (A) (A) (A) (A) (A) (A)
                 (A) (A) (A) (A) (A) (A) (A) (A) (A) (A) (A) (A)
                 (A) (A) (A) (A) (A) (A) (A) (A) (A) (A) (A) (A)
                 (A) (A) (A) (A) (A) (A) (A) (A) (A) (A) (A) (A)
                 (A) (A) (A) (A) (A) (A) (A) (A) (A) (A) (A) (A)
                 (A) (A) (A) (A) (A) (A) (A) (A) (A)
       Virtual   (A) (A) (A) (A) (A) (A) (A) (A) (A) (A) (A) (A)
                 (A) (A) (A) (A) (A) (A) (A) (A) (A) (A) (A) (A)
                 (A) (A) (A) (A) (A) (A) (A) (A) (A) (A) (A) (A)
                 (A) (A) (A) (A) (A) (A) (A) (A) (A) (A) (A) (A)
                 (A) (A) (A) (A) (A) (A) (A) (A) (A) (A) (A) (A)
                 (A) (A) (A) (A) (A) (A) (A) (A) (A) (A) (A) (A)
                 (A) (A) (A) (A) (A) (A) (A) (A) (A) (A) (A) (A)
                 (A) (A) (A) (A) (A) (A) (A) (A) (A) (A) (A) (A)
                 (A) (A) (A) (A) (A) (A) (A) (A) (A) (A) (A) (A)
                 (A) (A) (A) (A) (A) (A) (A) (A) (A) (A) (A) (A)
                 (A) (A) (A) (A) (A) (A) (A) (A) (A) (A) (A) (A)
                 (A) (A) (A) (A) (A) (A) (A) (A) (A) (A) (A) (A)
                 (A) (A) (A) (A) (A) (A) (A) (A) (A) (A) (A) (A)
                 (A) (A) (A) (A) (A) (A) (A) (A) (A) (A) (A) (A)
                 (A) (A) (A) (A) (A) (A) (A) (A) (A) (A) (A) (A)
                 (A) (A) (A) (A) (A) (A) (A) (A) (A) (A) (A) (A)
                 (A) (A) (A) (A) (A) (A) (A) (A) (A) (A) (A) (A)
                 (A) (A) (A) (A) (A) (A) (A) (A) (A) (A) (A) (A)
                 (A) (A) (A) (A) (A) (A) (A) (A) (A) (A) (A) (A)
                 (A) (A) (A) (A) (A) (A) (A) (A) (A) (A) (A) (A)
                 (A) (A) (A) (A) (A) (A) (A) (A) (A) (A) (A) (A)
                 (A) (A) (A) (A) (A) (A) (A) (A) (A) (A) (A) (A)
                 (A) (A) (A) (A) (A) (A) (A) (A) (A) (A) (A) (A)
                 (A) (A) (A) (A) (A) (A) (A) (A) (A) (A) (A) (A)
                 (A) (A) (A) (A) (A) (A) (A) (A) (A) (A) (A) (A)
                 (A) (A) (A) (A) (A) (A) (A) (A) (A) (A) (A) (A)
                 (A) (A) (A) (A) (A) (A) (A) (A) (A) (A) (A) (A)
                 (A) (A) (A) (A) (A) (A) (A)
 The electronic state is 1-A.
 Alpha  occ. eigenvalues --  -19.16640 -19.16492 -19.12767 -19.12652 -14.40939
 Alpha  occ. eigenvalues --  -14.40937 -14.40607 -14.40386 -10.23637 -10.23467
 Alpha  occ. eigenvalues --  -10.21402 -10.21321 -10.18477 -10.18410 -10.17510
 Alpha  occ. eigenvalues --  -10.17478 -10.17458 -10.17445 -10.17436 -10.17402
 Alpha  occ. eigenvalues --  -10.17368 -10.17327 -10.16938 -10.16824 -10.16796
 Alpha  occ. eigenvalues --  -10.15822  -3.74448  -2.44480  -2.43662  -2.42615
 Alpha  occ. eigenvalues --   -1.09062  -1.08524  -1.06861  -1.06322  -0.90598
 Alpha  occ. eigenvalues --   -0.89387  -0.85737  -0.81915  -0.80935  -0.80576
 Alpha  occ. eigenvalues --   -0.75273  -0.74631  -0.74174  -0.74161  -0.70647
 Alpha  occ. eigenvalues --   -0.70517  -0.68430  -0.66394  -0.62313  -0.60295
 Alpha  occ. eigenvalues --   -0.60011  -0.58748  -0.54905  -0.53531  -0.52908
 Alpha  occ. eigenvalues --   -0.52092  -0.51294  -0.50843  -0.49451  -0.48988
 Alpha  occ. eigenvalues --   -0.47613  -0.47028  -0.46629  -0.46054  -0.45267
 Alpha  occ. eigenvalues --   -0.44472  -0.43379  -0.42777  -0.42277  -0.42231
 Alpha  occ. eigenvalues --   -0.42007  -0.41851  -0.41555  -0.40937  -0.40560
 Alpha  occ. eigenvalues --   -0.39990  -0.39634  -0.39285  -0.38804  -0.38255
 Alpha  occ. eigenvalues --   -0.38105  -0.38021  -0.37596  -0.37382  -0.36746
 Alpha  occ. eigenvalues --   -0.36475  -0.34960  -0.34306  -0.34215  -0.33228
 Alpha  occ. eigenvalues --   -0.32896  -0.30926  -0.30424  -0.28293  -0.28011
 Alpha  occ. eigenvalues --   -0.27734  -0.26418  -0.26230  -0.25115  -0.25025
 Alpha  occ. eigenvalues --   -0.24895  -0.22369  -0.20197  -0.19808  -0.19454
 Alpha virt. eigenvalues --   -0.09152  -0.03748  -0.03353  -0.00426   0.00271
 Alpha virt. eigenvalues --    0.00532   0.02582   0.02816   0.03350   0.05976
 Alpha virt. eigenvalues --    0.06716   0.06825   0.07832   0.11028   0.12236
 Alpha virt. eigenvalues --    0.12522   0.13621   0.14478   0.14744   0.15051
 Alpha virt. eigenvalues --    0.15316   0.16055   0.16488   0.16820   0.17140
 Alpha virt. eigenvalues --    0.17533   0.17994   0.18303   0.18669   0.18813
 Alpha virt. eigenvalues --    0.19236   0.19446   0.20011   0.20214   0.21434
 Alpha virt. eigenvalues --    0.21845   0.22625   0.23127   0.23715   0.24765
 Alpha virt. eigenvalues --    0.25094   0.25442   0.25860   0.25974   0.26853
 Alpha virt. eigenvalues --    0.27194   0.28178   0.28663   0.29555   0.30152
 Alpha virt. eigenvalues --    0.30726   0.31939   0.32256   0.33138   0.34432
 Alpha virt. eigenvalues --    0.35140   0.36341   0.36707   0.40358   0.41195
 Alpha virt. eigenvalues --    0.42228   0.42601   0.42795   0.45032   0.46961
 Alpha virt. eigenvalues --    0.48190   0.50469   0.50999   0.52078   0.52974
 Alpha virt. eigenvalues --    0.53757   0.53996   0.54987   0.55620   0.56092
 Alpha virt. eigenvalues --    0.56517   0.57496   0.57951   0.58163   0.58440
 Alpha virt. eigenvalues --    0.59642   0.59870   0.60434   0.60611   0.60859
 Alpha virt. eigenvalues --    0.60984   0.61865   0.62430   0.63092   0.63342
 Alpha virt. eigenvalues --    0.64265   0.65176   0.65303   0.66814   0.67660
 Alpha virt. eigenvalues --    0.68213   0.69002   0.69382   0.69933   0.70524
 Alpha virt. eigenvalues --    0.71261   0.72243   0.72556   0.73763   0.74565
 Alpha virt. eigenvalues --    0.75143   0.75866   0.76469   0.77240   0.78266
 Alpha virt. eigenvalues --    0.78790   0.80073   0.81721   0.82036   0.83110
 Alpha virt. eigenvalues --    0.84070   0.84218   0.84536   0.85125   0.85284
 Alpha virt. eigenvalues --    0.85585   0.85778   0.86879   0.87153   0.87393
 Alpha virt. eigenvalues --    0.87938   0.89313   0.89788   0.90218   0.90372
 Alpha virt. eigenvalues --    0.90644   0.91368   0.91415   0.92004   0.92367
 Alpha virt. eigenvalues --    0.93231   0.93655   0.94494   0.95075   0.95857
 Alpha virt. eigenvalues --    0.96303   0.96777   0.97021   0.97782   0.99437
 Alpha virt. eigenvalues --    1.00011   1.00384   1.01014   1.02786   1.02901
 Alpha virt. eigenvalues --    1.03938   1.04168   1.04778   1.05289   1.05575
 Alpha virt. eigenvalues --    1.06784   1.08397   1.09165   1.10080   1.10941
 Alpha virt. eigenvalues --    1.11370   1.12128   1.13060   1.14932   1.15495
 Alpha virt. eigenvalues --    1.16591   1.17881   1.19409   1.20966   1.21754
 Alpha virt. eigenvalues --    1.22446   1.24354   1.24870   1.25580   1.27004
 Alpha virt. eigenvalues --    1.28602   1.28898   1.29531   1.30761   1.31578
 Alpha virt. eigenvalues --    1.33548   1.33981   1.35285   1.35637   1.36910
 Alpha virt. eigenvalues --    1.37070   1.37920   1.38423   1.39038   1.39366
 Alpha virt. eigenvalues --    1.39526   1.40907   1.42283   1.43445   1.44900
 Alpha virt. eigenvalues --    1.45169   1.45790   1.46446   1.49048   1.49907
 Alpha virt. eigenvalues --    1.50715   1.50772   1.51898   1.52170   1.53352
 Alpha virt. eigenvalues --    1.54916   1.59552   1.60759   1.62193   1.62973
 Alpha virt. eigenvalues --    1.65592   1.68678   1.70782   1.74149   1.74710
 Alpha virt. eigenvalues --    1.75255   1.76382   1.77003   1.77964   1.78657
 Alpha virt. eigenvalues --    1.78910   1.80040   1.80359   1.81031   1.81618
 Alpha virt. eigenvalues --    1.82229   1.82535   1.82980   1.83878   1.85341
 Alpha virt. eigenvalues --    1.87123   1.88319   1.89717   1.90303   1.90836
 Alpha virt. eigenvalues --    1.91828   1.92400   1.93075   1.94031   1.95048
 Alpha virt. eigenvalues --    1.96220   1.96680   1.98091   1.99087   1.99690
 Alpha virt. eigenvalues --    2.00168   2.00617   2.01892   2.02848   2.05618
 Alpha virt. eigenvalues --    2.06632   2.09619   2.10262   2.11945   2.12336
 Alpha virt. eigenvalues --    2.13127   2.13739   2.14731   2.15069   2.16193
 Alpha virt. eigenvalues --    2.16687   2.17665   2.19407   2.20021   2.20890
 Alpha virt. eigenvalues --    2.21600   2.23724   2.24139   2.26842   2.28193
 Alpha virt. eigenvalues --    2.28322   2.29384   2.30086   2.31029   2.32201
 Alpha virt. eigenvalues --    2.32907   2.33036   2.33712   2.34113   2.34213
 Alpha virt. eigenvalues --    2.34429   2.35783   2.36578   2.37409   2.39716
 Alpha virt. eigenvalues --    2.39998   2.44830   2.45438   2.46332   2.51361
 Alpha virt. eigenvalues --    2.51874   2.52556   2.53016   2.54525   2.55700
 Alpha virt. eigenvalues --    2.56728   2.57630   2.58255   2.59908   2.60657
 Alpha virt. eigenvalues --    2.64298   2.64599   2.64954   2.65873   2.66284
 Alpha virt. eigenvalues --    2.67854   2.68725   2.71112   2.74837   2.76192
 Alpha virt. eigenvalues --    2.76868   2.77279   2.78329   2.81990   2.85662
 Alpha virt. eigenvalues --    2.87282   2.90954   2.91730   2.93381   2.96062
 Alpha virt. eigenvalues --    3.02846   3.05338   3.05566   3.08516   3.10170
 Alpha virt. eigenvalues --    3.11490   3.20548   3.29626   3.32588   3.46531
 Alpha virt. eigenvalues --   21.74257
          Condensed to atoms (all electrons):
 Mulliken charges:
               1
     1  Co   0.322234
     2  N   -0.159612
     3  O   -0.573058
     4  C    0.324104
     5  C   -0.545691
     6  H    0.205247
     7  H    0.198707
     8  H    0.200449
     9  N   -0.078218
    10  O   -0.556013
    11  C    0.270490
    12  C   -0.548024
    13  H    0.187207
    14  H    0.190479
    15  H    0.189424
    16  N   -0.171848
    17  O   -0.567067
    18  C    0.326628
    19  C   -0.548662
    20  H    0.201856
    21  H    0.200731
    22  H    0.201057
    23  N   -0.077802
    24  O   -0.559896
    25  C    0.270477
    26  C   -0.548963
    27  H    0.187841
    28  H    0.190518
    29  H    0.187509
    30  H    0.470884
    31  H    0.472148
    32  C   -0.402973
    33  H    0.189563
    34  H    0.195195
    35  C    0.231143
    36  C   -0.246008
    37  H    0.148642
    38  C   -0.555163
    39  H    0.181421
    40  H    0.180347
    41  H    0.169148
    42  C    0.139873
    43  C   -0.200384
    44  C   -0.196868
    45  C   -0.158663
    46  H    0.158924
    47  C   -0.156310
    48  H    0.153539
    49  C   -0.151960
    50  H    0.152593
    51  H    0.152680
    52  H    0.152125
 Sum of Mulliken charges =  -0.00000
 Mulliken charges with hydrogens summed into heavy atoms:
               1
     1  Co   0.322234
     2  N   -0.159612
     3  O   -0.102174
     4  C    0.324104
     5  C    0.058712
     9  N   -0.078218
    10  O   -0.556013
    11  C    0.270490
    12  C    0.019086
    16  N   -0.171848
    17  O   -0.094918
    18  C    0.326628
    19  C    0.054982
    23  N   -0.077802
    24  O   -0.559896
    25  C    0.270477
    26  C    0.016905
    32  C   -0.018216
    35  C    0.231143
    36  C   -0.097366
    38  C   -0.024247
    42  C    0.139873
    43  C   -0.041460
    44  C   -0.043328
    45  C   -0.006070
    47  C   -0.003629
    49  C    0.000165
 Electronic spatial extent (au):  <R**2>=          10297.3933
 Charge=              0.0000 electrons
 Dipole moment (field-independent basis, Debye):
    X=              0.1656    Y=              0.4160    Z=              0.7605  Tot=              0.8826
 Quadrupole moment (field-independent basis, Debye-Ang):
   XX=           -147.4828   YY=           -160.3808   ZZ=           -164.2450
   XY=            -22.8633   XZ=              3.2264   YZ=             10.3301
 Traceless Quadrupole moment (field-independent basis, Debye-Ang):
   XX=              9.8867   YY=             -3.0112   ZZ=             -6.8755
   XY=            -22.8633   XZ=              3.2264   YZ=             10.3301
 Octapole moment (field-independent basis, Debye-Ang**2):
  XXX=             66.0916  YYY=             26.1164  ZZZ=              9.9663  XYY=             30.4342
  XXY=            -64.0211  XXZ=             17.2974  XZZ=              7.2352  YZZ=             20.2093
  YYZ=             29.7584  XYZ=             26.6326
 Hexadecapole moment (field-independent basis, Debye-Ang**3):
 XXXX=          -7785.9370 YYYY=          -3381.2858 ZZZZ=          -1559.9136 XXXY=           -246.4263
 XXXZ=             15.7685 YYYX=           -164.4874 YYYZ=             75.6149 ZZZX=             -8.0519
 ZZZY=              2.5811 XXYY=          -1966.6364 XXZZ=          -1657.8667 YYZZ=           -813.0549
 XXYZ=            -52.9786 YYXZ=            -59.1588 ZZXY=            -25.4696
 N-N= 3.002766306910D+03 E-N=-9.197082282345D+03  KE= 1.300227424249D+03
 Unable to Open any file for archive entry.
 1\1\GINC-N204\SP\RB3LYP\GenECP\C18H25Co1N4O4\CJD\02-Mar-2023\0\\# B3LY
 P/genecp em=GD3BJ int=fine scrf=(smd,solvent=acetone)\\Template\\0,1\C
 o,0,-1.2797776282,-0.0634812036,-0.4645353316\N,0,-2.8515828509,0.9596
 787066,-0.4940286742\O,0,-3.2377738499,1.8123021348,-1.4855805012\C,0,
 -3.6308391065,0.7957437252,0.5262613071\C,0,-4.9489526226,1.4735438953
 ,0.6830622651\H,0,-4.8813822281,2.2303062398,1.4631561322\H,0,-5.71384
 95816,0.756225947,0.970362119\H,0,-5.2244195244,1.9557358811,-0.251309
 3109\N,0,-1.9181280971,-0.5649928745,1.2427613962\O,0,-1.2884359416,-1
 .3571124551,2.05441782\C,0,-3.0963477873,-0.0886554352,1.533337435\C,0
 ,-3.8231934973,-0.4006475475,2.8024285325\H,0,-4.0695468285,0.51386013
 71,3.3379306256\H,0,-3.1813879455,-1.0217578837,3.4240504375\H,0,-4.74
 65473014,-0.9403279502,2.5968663977\N,0,0.1253786501,-1.3178451913,-0.
 532376717\O,0,0.5737710561,-2.080701174,0.5036506344\C,0,0.6683348331,
 -1.4634089644,-1.697252988\C,0,1.7696394193,-2.423606156,-1.9910347214
 \H,0,2.6362419352,-1.8889758982,-2.3737262714\H,0,1.4534466334,-3.1401
 765907,-2.7469944821\H,0,2.0442276264,-2.951711854,-1.0818986166\N,0,-
 0.7999332422,0.2196406169,-2.2608918671\O,0,-1.3780608616,1.0817635448
 ,-3.0390504985\C,0,0.1231476984,-0.5871939436,-2.7054796299\C,0,0.5984
 485662,-0.5949167767,-4.1232499619\H,0,1.6592422835,-0.3564298,-4.1730
 08585\H,0,0.0370000242,0.1517628858,-4.6812920965\H,0,0.4437901207,-1.
 5722549729,-4.5770291601\H,0,-2.5374244129,1.6619107077,-2.235741401\H
 ,0,-0.0976385115,-1.8783434668,1.2679196938\C,0,-0.2391671717,1.534268
 6225,0.226311928\H,0,-0.5068287114,2.3330831463,-0.4645379339\H,0,-0.6
 68305854,1.6932434546,1.2154195203\C,0,1.1898283004,1.2861123017,0.268
 2453159\C,0,1.7315851944,0.6685925271,1.3497829245\H,0,1.0429111319,0.
 312884888,2.1062403861\C,0,1.9936593281,1.7414580024,-0.9161504809\H,0
 ,1.3839082169,1.7078784961,-1.8144809361\H,0,2.3093526222,2.7743933505
 ,-0.7733837967\H,0,2.8768906276,1.124933524,-1.0570244307\C,0,3.118840
 8437,0.3313743972,1.6021309567\C,0,4.1941175227,1.1396416043,1.2223638
 624\C,0,3.3957082513,-0.8548396151,2.2931193737\C,0,5.4945565045,0.758
 935249,1.4983670259\H,0,4.0099998524,2.0904057256,0.7499881622\C,0,4.6
 961016626,-1.2402118721,2.5492774984\H,0,2.5741985223,-1.4847727093,2.
 5999323928\C,0,5.7534329429,-0.4357972526,2.1504290399\H,0,6.31294652,
 1.4007024226,1.2052120575\H,0,4.8893229007,-2.1676830795,3.0688301037\
 H,0,6.7708891022,-0.7331990569,2.3576544338\\Version=ES64L-G16RevC.01\
 State=1-A\HF=-1365.9317635\RMSD=2.504e-09\Dipole=-0.0655762,-0.2900606
 ,-0.1792525\Quadrupole=13.1216955,-5.5279424,-7.5937532,-0.680281,-13.
 2494091,9.48983\PG=C01 [X(C18H25Co1N4O4)]\\@
 The archive entry for this job was punched.


 Spring appears, and we are once more children.
                                  -- Anonymous
 Job cpu time:       0 days  0 hours 21 minutes 16.5 seconds.
 Elapsed time:       0 days  0 hours  1 minutes 21.9 seconds.
 File lengths (MBytes):  RWF=    329 Int=      0 D2E=      0 Chk=     14 Scr=      1
 Normal termination of Gaussian 16 at Thu Mar  2 08:27:11 2023.
