 Entering Gaussian System, Link 0=g16
 Initial command:
 /opt/local/g16/l1.exe "/data/tmp/cjd/Gau-2537.inp" -scrdir="/data/tmp/cjd/"
 Entering Link 1 = /opt/local/g16/l1.exe PID=      2538.
  
 Copyright (c) 1988-2019, Gaussian, Inc.  All Rights Reserved.
  
 This is part of the Gaussian(R) 16 program.  It is based on
 the Gaussian(R) 09 system (copyright 2009, Gaussian, Inc.),
 the Gaussian(R) 03 system (copyright 2003, Gaussian, Inc.),
 the Gaussian(R) 98 system (copyright 1998, Gaussian, Inc.),
 the Gaussian(R) 94 system (copyright 1995, Gaussian, Inc.),
 the Gaussian 92(TM) system (copyright 1992, Gaussian, Inc.),
 the Gaussian 90(TM) system (copyright 1990, Gaussian, Inc.),
 the Gaussian 88(TM) system (copyright 1988, Gaussian, Inc.),
 the Gaussian 86(TM) system (copyright 1986, Carnegie Mellon
 University), and the Gaussian 82(TM) system (copyright 1983,
 Carnegie Mellon University). Gaussian is a federally registered
 trademark of Gaussian, Inc.
  
 This software contains proprietary and confidential information,
 including trade secrets, belonging to Gaussian, Inc.
  
 This software is provided under written license and may be
 used, copied, transmitted, or stored only in accord with that
 written license.
  
 The following legend is applicable only to US Government
 contracts under FAR:
  
                    RESTRICTED RIGHTS LEGEND
  
 Use, reproduction and disclosure by the US Government is
 subject to restrictions as set forth in subparagraphs (a)
 and (c) of the Commercial Computer Software - Restricted
 Rights clause in FAR 52.227-19.
  
 Gaussian, Inc.
 340 Quinnipiac St., Bldg. 40, Wallingford CT 06492
  
  
 ---------------------------------------------------------------
 Warning -- This program may not be used in any manner that
 competes with the business of Gaussian, Inc. or will provide
 assistance to any competitor of Gaussian, Inc.  The licensee
 of this program is prohibited from giving any competitor of
 Gaussian, Inc. access to this program.  By using this program,
 the user acknowledges that Gaussian, Inc. is engaged in the
 business of creating and licensing software in the field of
 computational chemistry and represents and warrants to the
 licensee that it is not a competitor of Gaussian, Inc. and that
 it will not use this program in any manner prohibited above.
 ---------------------------------------------------------------
  

 Cite this work as:
 Gaussian 16, Revision C.01,
 M. J. Frisch, G. W. Trucks, H. B. Schlegel, G. E. Scuseria, 
 M. A. Robb, J. R. Cheeseman, G. Scalmani, V. Barone, 
 G. A. Petersson, H. Nakatsuji, X. Li, M. Caricato, A. V. Marenich, 
 J. Bloino, B. G. Janesko, R. Gomperts, B. Mennucci, H. P. Hratchian, 
 J. V. Ortiz, A. F. Izmaylov, J. L. Sonnenberg, D. Williams-Young, 
 F. Ding, F. Lipparini, F. Egidi, J. Goings, B. Peng, A. Petrone, 
 T. Henderson, D. Ranasinghe, V. G. Zakrzewski, J. Gao, N. Rega, 
 G. Zheng, W. Liang, M. Hada, M. Ehara, K. Toyota, R. Fukuda, 
 J. Hasegawa, M. Ishida, T. Nakajima, Y. Honda, O. Kitao, H. Nakai, 
 T. Vreven, K. Throssell, J. A. Montgomery, Jr., J. E. Peralta, 
 F. Ogliaro, M. J. Bearpark, J. J. Heyd, E. N. Brothers, K. N. Kudin, 
 V. N. Staroverov, T. A. Keith, R. Kobayashi, J. Normand, 
 K. Raghavachari, A. P. Rendell, J. C. Burant, S. S. Iyengar, 
 J. Tomasi, M. Cossi, J. M. Millam, M. Klene, C. Adamo, R. Cammi, 
 J. W. Ochterski, R. L. Martin, K. Morokuma, O. Farkas, 
 J. B. Foresman, and D. J. Fox, Gaussian, Inc., Wallingford CT, 2019.
 
 ******************************************
 Gaussian 16:  ES64L-G16RevC.01  3-Jul-2019
                 2-Mar-2023 
 ******************************************
 %nproc=16
 Will use up to   16 processors via shared memory.
 %mem=60GB
 -----------------------------------------------------------
 # B3LYP/genecp em=GD3BJ int=fine scrf=(smd,solvent=acetone)
 -----------------------------------------------------------
 1/38=1,172=1/1;
 2/12=2,17=6,18=5,40=1/2;
 3/5=7,11=2,16=1,17=8,25=1,30=1,70=32201,72=19,74=-5,75=-4,124=41/1,2,3;
 4//1;
 5/5=2,38=5,53=19/2;
 6/7=2,8=2,9=2,10=2,28=1/1;
 99/5=1,9=1/99;
 --------
 Template
 --------
 Symbolic Z-matrix:
 Charge =  0 Multiplicity = 1
 Co                   -1.25782  -0.06468  -0.51391 
 N                    -2.83904   0.94238  -0.44927 
 O                    -3.32425   1.74559  -1.43832 
 C                    -3.52558   0.81089   0.64008 
 C                    -4.83689   1.47708   0.88165 
 H                    -4.71554   2.26973   1.61837 
 H                    -5.56124   0.76327   1.26616 
 H                    -5.20072   1.9123   -0.04551 
 N                    -1.73721  -0.49964   1.26042 
 O                    -1.02772  -1.2479    2.04673 
 C                    -2.89216  -0.02297   1.63276 
 C                    -3.5004   -0.28643   2.97334 
 H                    -2.7979   -0.87317   3.56183 
 H                    -4.43057  -0.844     2.87356 
 H                    -3.71164   0.64818   3.48883 
 N                     0.14764  -1.31138  -0.65785 
 O                     0.68821  -2.03686   0.36108 
 C                     0.58563  -1.50025  -1.86039 
 C                     1.65725  -2.47351  -2.21528 
 H                     2.06216  -2.91462  -1.30844 
 H                     2.45087  -1.97181  -2.76376 
 H                     1.25368  -3.26102  -2.84975 
 N                    -0.93741   0.15513  -2.35659 
 O                    -1.58668   0.98533  -3.11316 
 C                    -0.04928  -0.66284  -2.84928 
 C                     0.30103  -0.72194  -4.302 
 H                     0.13419  -1.72188  -4.69847 
 H                     1.34648  -0.46053  -4.4565 
 H                    -0.3267   -0.0132   -4.83863 
 H                    -2.6839    1.57857  -2.23726 
 H                     0.09454  -1.79841   1.17572 
 C                    -0.17894   1.56375   0.02781 
 H                    -0.39032   2.28436  -0.76149 
 H                    -0.63087   1.85815   0.97479 
 C                     1.23317   1.2568    0.15077 
 C                     1.70772   0.75877   1.32305 
 H                     0.97365   0.53292   2.08672 
 C                     2.09228   1.51411  -1.05407 
 H                     1.49893   1.41625  -1.95892 
 H                     2.47956   2.53191  -1.02318 
 H                     2.92951   0.8233   -1.09677 
 C                     3.06211   0.39864   1.68736 
 C                     4.20141   1.05594   1.21272 
 C                     3.23919  -0.64906   2.60091 
 C                     5.46394   0.65614   1.61039 
 H                     4.09902   1.91146   0.56632 
 C                     4.50164  -1.05626   2.98103 
 H                     2.36853  -1.15569   2.98988 
 C                     5.62253  -0.40776   2.48364 
 H                     6.33219   1.18114   1.23864 
 H                     4.61584  -1.87745   3.6739 
 H                     6.61095  -0.72152   2.78559 
 
 Stoichiometry    C18H25CoN4O4
 Framework group  C1[X(C18H25CoN4O4)]
 Deg. of freedom   150
 Full point group                 C1      NOp   1
 Largest Abelian subgroup         C1      NOp   1
 Largest concise Abelian subgroup C1      NOp   1
                         Standard orientation:                         
 ---------------------------------------------------------------------
 Center     Atomic      Atomic             Coordinates (Angstroms)
 Number     Number       Type             X           Y           Z
 ---------------------------------------------------------------------
      1         27           0        1.366373    0.192519    0.197531
      2          7           0        2.975702   -0.340842   -0.605082
      3          8           0        3.775556    0.428751   -1.396768
      4          6           0        3.347467   -1.550062   -0.331405
      5          6           0        4.617099   -2.159813   -0.819193
      6          1           0        4.396573   -2.908149   -1.578890
      7          1           0        5.142781   -2.648656   -0.002650
      8          1           0        5.246373   -1.389531   -1.257481
      9          7           0        1.334408   -1.602358    0.784591
     10          8           0        0.375691   -2.125859    1.483415
     11          6           0        2.400938   -2.284356    0.472861
     12          6           0        2.620237   -3.706077    0.881682
     13          1           0        1.734956   -4.053697    1.410377
     14          1           0        3.482422   -3.790478    1.541662
     15          1           0        2.790265   -4.333904    0.009471
     16          7           0       -0.078712    0.779553    1.254608
     17          8           0       -0.931308   -0.011877    1.964177
     18          6           0       -0.216028    2.064137    1.322350
     19          6           0       -1.258313    2.750449    2.137312
     20          1           0       -1.922588    2.010338    2.575331
     21          1           0       -1.831248    3.432381    1.513541
     22          1           0       -0.791583    3.330575    2.931794
     23          7           0        1.546216    2.032546   -0.160784
     24          8           0        2.447998    2.535188   -0.946486
     25          6           0        0.731357    2.794114    0.514954
     26          6           0        0.755023    4.288083    0.450928
     27          1           0        0.911883    4.713957    1.440340
     28          1           0       -0.184582    4.671100    0.056461
     29          1           0        1.567949    4.593681   -0.204887
     30          1           0        3.343931    1.371104   -1.352987
     31          1           0       -0.541136   -0.963960    1.844809
     32          6           0        0.360653   -0.203239   -1.517437
     33          1           0        0.838068    0.447257   -2.249477
     34          1           0        0.586845   -1.253187   -1.702167
     35          6           0       -1.060719    0.048954   -1.377824
     36          6           0       -1.864916   -0.925781   -0.877213
     37          1           0       -1.374994   -1.824104   -0.522194
     38          6           0       -1.556286    1.401407   -1.803515
     39          1           0       -0.767150    2.138613   -1.684394
     40          1           0       -1.831047    1.381112   -2.857532
     41          1           0       -2.422605    1.705187   -1.222823
     42          6           0       -3.297218   -0.916399   -0.664581
     43          6           0       -4.205203   -0.234290   -1.480445
     44          6           0       -3.806951   -1.667945    0.402640
     45          6           0       -5.561675   -0.276276   -1.215504
     46          1           0       -3.854725    0.293528   -2.351537
     47          6           0       -5.159680   -1.692384    0.673953
     48          1           0       -3.120143   -2.214211    1.031849
     49          6           0       -6.045124   -0.992060   -0.132213
     50          1           0       -6.248605    0.251224   -1.861682
     51          1           0       -5.529694   -2.265076    1.512148
     52          1           0       -7.104796   -1.015805    0.075441
 ---------------------------------------------------------------------
 Rotational constants (GHZ):           0.2699265           0.1357107           0.1102510
 General basis read from cards:  (5D, 7F)
 ======================================================================================================
                                       Pseudopotential Parameters
 ======================================================================================================
  Center     Atomic      Valence      Angular      Power
  Number     Number     Electrons     Momentum     of R      Exponent        Coefficient   SO-Coeffient
 ======================================================================================================
    1         27           17
                                      D and up 
                                                     1      434.1076104      -10.00000000    0.00000000
                                                     2       78.8402758      -66.72402760    0.00000000
                                                     2       19.6037749      -11.71922430    0.00000000
                                      S - D
                                                     0      151.2307582        3.00000000    0.00000000
                                                     1      169.6790026       20.15531100    0.00000000
                                                     2       64.9909423      413.37622440    0.00000000
                                                     2       12.5076287      133.87277050    0.00000000
                                      P - D
                                                     0       92.7319924        5.00000000    0.00000000
                                                     1      121.1910183        6.18923530    0.00000000
                                                     2       48.6265909      326.32159190    0.00000000
                                                     2       11.9966971       73.87889700    0.00000000
    2          7
                                   No pseudopotential on this center.
    3          8
                                   No pseudopotential on this center.
    4          6
                                   No pseudopotential on this center.
    5          6
                                   No pseudopotential on this center.
    6          1
                                   No pseudopotential on this center.
    7          1
                                   No pseudopotential on this center.
    8          1
                                   No pseudopotential on this center.
    9          7
                                   No pseudopotential on this center.
   10          8
                                   No pseudopotential on this center.
   11          6
                                   No pseudopotential on this center.
   12          6
                                   No pseudopotential on this center.
   13          1
                                   No pseudopotential on this center.
   14          1
                                   No pseudopotential on this center.
   15          1
                                   No pseudopotential on this center.
   16          7
                                   No pseudopotential on this center.
   17          8
                                   No pseudopotential on this center.
   18          6
                                   No pseudopotential on this center.
   19          6
                                   No pseudopotential on this center.
   20          1
                                   No pseudopotential on this center.
   21          1
                                   No pseudopotential on this center.
   22          1
                                   No pseudopotential on this center.
   23          7
                                   No pseudopotential on this center.
   24          8
                                   No pseudopotential on this center.
   25          6
                                   No pseudopotential on this center.
   26          6
                                   No pseudopotential on this center.
   27          1
                                   No pseudopotential on this center.
   28          1
                                   No pseudopotential on this center.
   29          1
                                   No pseudopotential on this center.
   30          1
                                   No pseudopotential on this center.
   31          1
                                   No pseudopotential on this center.
   32          6
                                   No pseudopotential on this center.
   33          1
                                   No pseudopotential on this center.
   34          1
                                   No pseudopotential on this center.
   35          6
                                   No pseudopotential on this center.
   36          6
                                   No pseudopotential on this center.
   37          1
                                   No pseudopotential on this center.
   38          6
                                   No pseudopotential on this center.
   39          1
                                   No pseudopotential on this center.
   40          1
                                   No pseudopotential on this center.
   41          1
                                   No pseudopotential on this center.
   42          6
                                   No pseudopotential on this center.
   43          6
                                   No pseudopotential on this center.
   44          6
                                   No pseudopotential on this center.
   45          6
                                   No pseudopotential on this center.
   46          1
                                   No pseudopotential on this center.
   47          6
                                   No pseudopotential on this center.
   48          1
                                   No pseudopotential on this center.
   49          6
                                   No pseudopotential on this center.
   50          1
                                   No pseudopotential on this center.
   51          1
                                   No pseudopotential on this center.
   52          1
                                   No pseudopotential on this center.
 ======================================================================================================
 There are   464 symmetry adapted cartesian basis functions of A   symmetry.
 There are   436 symmetry adapted basis functions of A   symmetry.
   436 basis functions,   880 primitive gaussians,   464 cartesian basis functions
   105 alpha electrons      105 beta electrons
       nuclear repulsion energy      3001.6187023318 Hartrees.
 NAtoms=   52 NActive=   52 NUniq=   52 SFac= 1.00D+00 NAtFMM=   60 NAOKFM=F Big=F
 Integral buffers will be    131072 words long.
 Raffenetti 2 integral format.
 Two-electron integral symmetry is turned on.
 Nuclear repulsion after empirical dispersion term =     3001.4943052388 Hartrees.
 ------------------------------------------------------------------------------
 Polarizable Continuum Model (PCM)
 =================================
 Model                : PCM.
 Atomic radii         : SMD-Coulomb.
 Polarization charges : Total charges.
 Charge compensation  : None.
 Solution method      : On-the-fly selection.
 Cavity type          : VdW (van der Waals Surface) (Alpha=1.000).
 Cavity algorithm     : GePol (No added spheres)
                        Default sphere list used, NSphG=   52.
                        Lebedev-Laikov grids with approx.  5.0 points / Ang**2.
                        Smoothing algorithm: York/Karplus (Gamma=1.0000).
                        Polarization charges: spherical gaussians, with
                                              point-specific exponents (IZeta= 3).
                        Self-potential: point-specific (ISelfS= 7).
                        Self-field    : sphere-specific E.n sum rule (ISelfD= 2).
 Solvent              : Acetone, Eps=  20.493000 Eps(inf)=   1.846337
 ------------------------------------------------------------------------------
 ------------------------------------------------------------------------------
 Atomic radii for non-electrostatic terms: SMD-CDS.
 ------------------------------------------------------------------------------
 Nuclear repulsion after PCM non-electrostatic terms =     3001.4878725833 Hartrees.
 One-electron integrals computed using PRISM.
   1 Symmetry operations used in ECPInt.
 ECPInt:  NShTT=   13203 NPrTT=   81964 LenC2=   11347 LenP2D=   39328.
 LDataN:  DoStor=T MaxTD1= 4 Len=   56
 NBasis=   436 RedAO= T EigKep=  4.37D-04  NBF=   436
 NBsUse=   436 1.00D-06 EigRej= -1.00D+00 NBFU=   436
 ExpMin= 2.30D-02 ExpMax= 5.48D+03 ExpMxC= 8.25D+02 IAcc=3 IRadAn=         5 AccDes= 0.00D+00
 Harris functional with IExCor=  402 and IRadAn=       5 diagonalized for initial guess.
 HarFok:  IExCor=  402 AccDes= 0.00D+00 IRadAn=         5 IDoV= 1 UseB2=F ITyADJ=14
 ICtDFT=  3500011 ScaDFX=  1.000000  1.000000  1.000000  1.000000
 FoFCou: FMM=F IPFlag=           0 FMFlag=      100000 FMFlg1=           0
         NFxFlg=           0 DoJE=T BraDBF=F KetDBF=T FulRan=T
         wScrn=  0.000000 ICntrl=       500 IOpCl=  0 I1Cent=   200000004 NGrid=           0
         NMat0=    1 NMatS0=      1 NMatT0=    0 NMatD0=    1 NMtDS0=    0 NMtDT0=    0
 Petite list used in FoFCou.
 Requested convergence on RMS density matrix=1.00D-08 within 128 cycles.
 Requested convergence on MAX density matrix=1.00D-06.
 Requested convergence on             energy=1.00D-06.
 No special actions if energy rises.
 Inv3:  Mode=1 IEnd=    40164843.
 Iteration    1 A*A^-1 deviation from unit magnitude is 3.55D-15 for   2370.
 Iteration    1 A*A^-1 deviation from orthogonality  is 3.33D-15 for   2225    741.
 Iteration    1 A^-1*A deviation from unit magnitude is 3.33D-15 for   2370.
 Iteration    1 A^-1*A deviation from orthogonality  is 5.65D-12 for   1080    997.
 EnCoef did     5 forward-backward iterations
 Restarting incremental Fock formation.
 Error on total polarization charges =  0.04573
 SCF Done:  E(RB3LYP) =  -1365.93253205     A.U. after   21 cycles
            NFock= 21  Conv=0.32D-08     -V/T= 2.0505
 SMD-CDS (non-electrostatic) energy       (kcal/mol) =      -4.04
 (included in total energy above)

 **********************************************************************

            Population analysis using the SCF Density.

 **********************************************************************

 Orbital symmetries:
       Occupied  (A) (A) (A) (A) (A) (A) (A) (A) (A) (A) (A) (A)
                 (A) (A) (A) (A) (A) (A) (A) (A) (A) (A) (A) (A)
                 (A) (A) (A) (A) (A) (A) (A) (A) (A) (A) (A) (A)
                 (A) (A) (A) (A) (A) (A) (A) (A) (A) (A) (A) (A)
                 (A) (A) (A) (A) (A) (A) (A) (A) (A) (A) (A) (A)
                 (A) (A) (A) (A) (A) (A) (A) (A) (A) (A) (A) (A)
                 (A) (A) (A) (A) (A) (A) (A) (A) (A) (A) (A) (A)
                 (A) (A) (A) (A) (A) (A) (A) (A) (A) (A) (A) (A)
                 (A) (A) (A) (A) (A) (A) (A) (A) (A)
       Virtual   (A) (A) (A) (A) (A) (A) (A) (A) (A) (A) (A) (A)
                 (A) (A) (A) (A) (A) (A) (A) (A) (A) (A) (A) (A)
                 (A) (A) (A) (A) (A) (A) (A) (A) (A) (A) (A) (A)
                 (A) (A) (A) (A) (A) (A) (A) (A) (A) (A) (A) (A)
                 (A) (A) (A) (A) (A) (A) (A) (A) (A) (A) (A) (A)
                 (A) (A) (A) (A) (A) (A) (A) (A) (A) (A) (A) (A)
                 (A) (A) (A) (A) (A) (A) (A) (A) (A) (A) (A) (A)
                 (A) (A) (A) (A) (A) (A) (A) (A) (A) (A) (A) (A)
                 (A) (A) (A) (A) (A) (A) (A) (A) (A) (A) (A) (A)
                 (A) (A) (A) (A) (A) (A) (A) (A) (A) (A) (A) (A)
                 (A) (A) (A) (A) (A) (A) (A) (A) (A) (A) (A) (A)
                 (A) (A) (A) (A) (A) (A) (A) (A) (A) (A) (A) (A)
                 (A) (A) (A) (A) (A) (A) (A) (A) (A) (A) (A) (A)
                 (A) (A) (A) (A) (A) (A) (A) (A) (A) (A) (A) (A)
                 (A) (A) (A) (A) (A) (A) (A) (A) (A) (A) (A) (A)
                 (A) (A) (A) (A) (A) (A) (A) (A) (A) (A) (A) (A)
                 (A) (A) (A) (A) (A) (A) (A) (A) (A) (A) (A) (A)
                 (A) (A) (A) (A) (A) (A) (A) (A) (A) (A) (A) (A)
                 (A) (A) (A) (A) (A) (A) (A) (A) (A) (A) (A) (A)
                 (A) (A) (A) (A) (A) (A) (A) (A) (A) (A) (A) (A)
                 (A) (A) (A) (A) (A) (A) (A) (A) (A) (A) (A) (A)
                 (A) (A) (A) (A) (A) (A) (A) (A) (A) (A) (A) (A)
                 (A) (A) (A) (A) (A) (A) (A) (A) (A) (A) (A) (A)
                 (A) (A) (A) (A) (A) (A) (A) (A) (A) (A) (A) (A)
                 (A) (A) (A) (A) (A) (A) (A) (A) (A) (A) (A) (A)
                 (A) (A) (A) (A) (A) (A) (A) (A) (A) (A) (A) (A)
                 (A) (A) (A) (A) (A) (A) (A) (A) (A) (A) (A) (A)
                 (A) (A) (A) (A) (A) (A) (A)
 The electronic state is 1-A.
 Alpha  occ. eigenvalues --  -19.16623 -19.16416 -19.12731 -19.12651 -14.40941
 Alpha  occ. eigenvalues --  -14.40935 -14.40599 -14.40399 -10.23608 -10.23505
 Alpha  occ. eigenvalues --  -10.21403 -10.21332 -10.18505 -10.18435 -10.17524
 Alpha  occ. eigenvalues --  -10.17493 -10.17453 -10.17453 -10.17442 -10.17408
 Alpha  occ. eigenvalues --  -10.17385 -10.17371 -10.16917 -10.16827 -10.16807
 Alpha  occ. eigenvalues --  -10.15852  -3.74388  -2.44420  -2.43621  -2.42542
 Alpha  occ. eigenvalues --   -1.09044  -1.08497  -1.06859  -1.06316  -0.90585
 Alpha  occ. eigenvalues --   -0.89378  -0.85746  -0.81906  -0.80936  -0.80572
 Alpha  occ. eigenvalues --   -0.75309  -0.74633  -0.74181  -0.74176  -0.70646
 Alpha  occ. eigenvalues --   -0.70519  -0.68465  -0.66377  -0.62301  -0.60293
 Alpha  occ. eigenvalues --   -0.60040  -0.58768  -0.54899  -0.53521  -0.52934
 Alpha  occ. eigenvalues --   -0.52072  -0.51280  -0.50837  -0.49462  -0.48970
 Alpha  occ. eigenvalues --   -0.47602  -0.47027  -0.46620  -0.46069  -0.45288
 Alpha  occ. eigenvalues --   -0.44467  -0.43395  -0.42689  -0.42287  -0.42210
 Alpha  occ. eigenvalues --   -0.42006  -0.41823  -0.41533  -0.40990  -0.40549
 Alpha  occ. eigenvalues --   -0.39981  -0.39620  -0.39319  -0.38805  -0.38194
 Alpha  occ. eigenvalues --   -0.38119  -0.38039  -0.37603  -0.37384  -0.36793
 Alpha  occ. eigenvalues --   -0.36545  -0.34963  -0.34295  -0.34234  -0.33155
 Alpha  occ. eigenvalues --   -0.32895  -0.30898  -0.30492  -0.28249  -0.28006
 Alpha  occ. eigenvalues --   -0.27713  -0.26504  -0.26220  -0.25071  -0.25004
 Alpha  occ. eigenvalues --   -0.24906  -0.22353  -0.20112  -0.19752  -0.19487
 Alpha virt. eigenvalues --   -0.09160  -0.03734  -0.03319  -0.00414   0.00292
 Alpha virt. eigenvalues --    0.00512   0.02583   0.02793   0.03362   0.06070
 Alpha virt. eigenvalues --    0.06704   0.06810   0.07864   0.11050   0.12313
 Alpha virt. eigenvalues --    0.12666   0.13663   0.14453   0.14896   0.15012
 Alpha virt. eigenvalues --    0.15128   0.15896   0.16418   0.16819   0.17085
 Alpha virt. eigenvalues --    0.17523   0.17871   0.18356   0.18573   0.18898
 Alpha virt. eigenvalues --    0.19250   0.19579   0.20007   0.20180   0.21609
 Alpha virt. eigenvalues --    0.21934   0.22536   0.23086   0.23846   0.24698
 Alpha virt. eigenvalues --    0.24949   0.25506   0.25749   0.25994   0.26874
 Alpha virt. eigenvalues --    0.27172   0.28350   0.28748   0.29552   0.30183
 Alpha virt. eigenvalues --    0.31002   0.31860   0.32292   0.33220   0.34553
 Alpha virt. eigenvalues --    0.35281   0.36325   0.36620   0.40509   0.41265
 Alpha virt. eigenvalues --    0.42156   0.42713   0.42794   0.44887   0.46883
 Alpha virt. eigenvalues --    0.48297   0.50976   0.51049   0.52034   0.52922
 Alpha virt. eigenvalues --    0.53609   0.54158   0.54820   0.55704   0.56092
 Alpha virt. eigenvalues --    0.56547   0.57452   0.57976   0.58420   0.58639
 Alpha virt. eigenvalues --    0.59317   0.59910   0.60238   0.60481   0.60755
 Alpha virt. eigenvalues --    0.61393   0.61689   0.62356   0.62922   0.63525
 Alpha virt. eigenvalues --    0.64592   0.64946   0.65348   0.66835   0.67403
 Alpha virt. eigenvalues --    0.68293   0.68794   0.69364   0.70109   0.70334
 Alpha virt. eigenvalues --    0.71567   0.72388   0.73087   0.74356   0.74989
 Alpha virt. eigenvalues --    0.75301   0.75940   0.76562   0.77030   0.78304
 Alpha virt. eigenvalues --    0.79145   0.80340   0.81776   0.82384   0.82833
 Alpha virt. eigenvalues --    0.83917   0.84297   0.84776   0.85241   0.85380
 Alpha virt. eigenvalues --    0.85825   0.86005   0.86295   0.86694   0.87760
 Alpha virt. eigenvalues --    0.88095   0.88911   0.89544   0.90268   0.90741
 Alpha virt. eigenvalues --    0.90808   0.91328   0.91567   0.91851   0.92301
 Alpha virt. eigenvalues --    0.93266   0.94042   0.94665   0.94859   0.95480
 Alpha virt. eigenvalues --    0.96242   0.96833   0.97211   0.97710   0.99216
 Alpha virt. eigenvalues --    0.99829   1.00130   1.01240   1.02536   1.02963
 Alpha virt. eigenvalues --    1.03675   1.04362   1.04611   1.05278   1.05625
 Alpha virt. eigenvalues --    1.07472   1.07793   1.09482   1.10225   1.10627
 Alpha virt. eigenvalues --    1.11000   1.12154   1.12488   1.15395   1.16289
 Alpha virt. eigenvalues --    1.16417   1.17750   1.19829   1.21258   1.21794
 Alpha virt. eigenvalues --    1.22312   1.24268   1.24753   1.26196   1.27507
 Alpha virt. eigenvalues --    1.28404   1.29257   1.29380   1.30669   1.33101
 Alpha virt. eigenvalues --    1.33404   1.34498   1.34750   1.35635   1.36901
 Alpha virt. eigenvalues --    1.37056   1.38130   1.38899   1.38962   1.39392
 Alpha virt. eigenvalues --    1.39634   1.41658   1.42114   1.43611   1.44878
 Alpha virt. eigenvalues --    1.44995   1.46006   1.46373   1.48888   1.49963
 Alpha virt. eigenvalues --    1.50593   1.51216   1.51699   1.52787   1.53420
 Alpha virt. eigenvalues --    1.54863   1.58678   1.60753   1.61715   1.63117
 Alpha virt. eigenvalues --    1.66410   1.68629   1.70764   1.74083   1.74463
 Alpha virt. eigenvalues --    1.75281   1.76661   1.77018   1.78035   1.78838
 Alpha virt. eigenvalues --    1.79064   1.79750   1.79927   1.81515   1.81709
 Alpha virt. eigenvalues --    1.82383   1.82696   1.83175   1.83804   1.85730
 Alpha virt. eigenvalues --    1.87170   1.88471   1.89570   1.89972   1.90661
 Alpha virt. eigenvalues --    1.91802   1.92588   1.93040   1.94102   1.95089
 Alpha virt. eigenvalues --    1.96206   1.96771   1.98246   1.99111   1.99738
 Alpha virt. eigenvalues --    2.00037   2.00541   2.01730   2.03310   2.05848
 Alpha virt. eigenvalues --    2.06652   2.09875   2.10195   2.11651   2.12437
 Alpha virt. eigenvalues --    2.13673   2.13853   2.14819   2.15159   2.16085
 Alpha virt. eigenvalues --    2.16869   2.17974   2.19482   2.20174   2.20802
 Alpha virt. eigenvalues --    2.21687   2.23746   2.24386   2.27036   2.28230
 Alpha virt. eigenvalues --    2.28536   2.29568   2.30123   2.31204   2.32090
 Alpha virt. eigenvalues --    2.32942   2.33120   2.33803   2.33917   2.34224
 Alpha virt. eigenvalues --    2.34510   2.35812   2.36574   2.37488   2.39569
 Alpha virt. eigenvalues --    2.40017   2.44890   2.45308   2.45853   2.51384
 Alpha virt. eigenvalues --    2.51946   2.52935   2.53040   2.54634   2.55829
 Alpha virt. eigenvalues --    2.56914   2.57839   2.58006   2.60005   2.60704
 Alpha virt. eigenvalues --    2.64344   2.64613   2.65043   2.65898   2.66238
 Alpha virt. eigenvalues --    2.67877   2.68834   2.71152   2.74724   2.75827
 Alpha virt. eigenvalues --    2.76700   2.77631   2.78581   2.82033   2.85543
 Alpha virt. eigenvalues --    2.87381   2.90861   2.91818   2.93307   2.96570
 Alpha virt. eigenvalues --    3.03212   3.05431   3.05888   3.08377   3.10324
 Alpha virt. eigenvalues --    3.12136   3.21450   3.29656   3.32516   3.46551
 Alpha virt. eigenvalues --   21.76752
          Condensed to atoms (all electrons):
 Mulliken charges:
               1
     1  Co   0.315013
     2  N   -0.159141
     3  O   -0.573038
     4  C    0.323185
     5  C   -0.545365
     6  H    0.205085
     7  H    0.198458
     8  H    0.199836
     9  N   -0.077682
    10  O   -0.555003
    11  C    0.270668
    12  C   -0.548119
    13  H    0.190481
    14  H    0.189401
    15  H    0.187171
    16  N   -0.176114
    17  O   -0.567661
    18  C    0.329929
    19  C   -0.548060
    20  H    0.201404
    21  H    0.200078
    22  H    0.202296
    23  N   -0.076333
    24  O   -0.559218
    25  C    0.268734
    26  C   -0.549379
    27  H    0.187100
    28  H    0.188494
    29  H    0.190701
    30  H    0.470465
    31  H    0.474389
    32  C   -0.404218
    33  H    0.190594
    34  H    0.192803
    35  C    0.234476
    36  C   -0.252131
    37  H    0.153683
    38  C   -0.556432
    39  H    0.180294
    40  H    0.181034
    41  H    0.170512
    42  C    0.149257
    43  C   -0.201926
    44  C   -0.201299
    45  C   -0.158379
    46  H    0.159253
    47  C   -0.155559
    48  H    0.154161
    49  C   -0.151952
    50  H    0.152680
    51  H    0.152968
    52  H    0.152408
 Sum of Mulliken charges =  -0.00000
 Mulliken charges with hydrogens summed into heavy atoms:
               1
     1  Co   0.315013
     2  N   -0.159141
     3  O   -0.102573
     4  C    0.323185
     5  C    0.058014
     9  N   -0.077682
    10  O   -0.555003
    11  C    0.270668
    12  C    0.018933
    16  N   -0.176114
    17  O   -0.093273
    18  C    0.329929
    19  C    0.055718
    23  N   -0.076333
    24  O   -0.559218
    25  C    0.268734
    26  C    0.016916
    32  C   -0.020821
    35  C    0.234476
    36  C   -0.098448
    38  C   -0.024592
    42  C    0.149257
    43  C   -0.042673
    44  C   -0.047138
    45  C   -0.005698
    47  C   -0.002591
    49  C    0.000455
 Electronic spatial extent (au):  <R**2>=          10293.0995
 Charge=             -0.0000 electrons
 Dipole moment (field-independent basis, Debye):
    X=              0.0719    Y=              0.3528    Z=              0.8065  Tot=              0.8832
 Quadrupole moment (field-independent basis, Debye-Ang):
   XX=           -154.6115   YY=           -151.3707   ZZ=           -165.9654
   XY=            -22.7476   XZ=              6.2332   YZ=              8.6261
 Traceless Quadrupole moment (field-independent basis, Debye-Ang):
   XX=              2.7044   YY=              5.9452   ZZ=             -8.6495
   XY=            -22.7476   XZ=              6.2332   YZ=              8.6261
 Octapole moment (field-independent basis, Debye-Ang**2):
  XXX=             29.8484  YYY=             25.7071  ZZZ=              9.8828  XYY=             42.1969
  XXY=            -65.1907  XXZ=             24.7131  XZZ=             12.6101  YZZ=             19.1086
  YYZ=             31.2072  XYZ=             28.5296
 Hexadecapole moment (field-independent basis, Debye-Ang**3):
 XXXX=          -7689.7642 YYYY=          -3612.5709 ZZZZ=          -1470.5557 XXXY=           -233.3950
 XXXZ=             23.6495 YYYX=           -179.9538 YYYZ=             85.2738 ZZZX=             -9.0288
 ZZZY=              1.9586 XXYY=          -1952.7689 XXZZ=          -1623.7633 YYZZ=           -849.2509
 XXYZ=            -75.0331 YYXZ=            -41.5897 ZZXY=            -26.5940
 N-N= 3.001487872583D+03 E-N=-9.194598814987D+03  KE= 1.300228745949D+03
 Unable to Open any file for archive entry.
 1\1\GINC-N204\SP\RB3LYP\GenECP\C18H25Co1N4O4\CJD\02-Mar-2023\0\\# B3LY
 P/genecp em=GD3BJ int=fine scrf=(smd,solvent=acetone)\\Template\\0,1\C
 o,0,-1.2578186265,-0.0646826767,-0.5139132354\N,0,-2.8390387939,0.9423
 750558,-0.4492695987\O,0,-3.3242485796,1.7455935296,-1.4383183924\C,0,
 -3.5255824044,0.8108917194,0.6400837481\C,0,-4.8368941998,1.4770796805
 ,0.8816497073\H,0,-4.7155365363,2.2697323686,1.6183674384\H,0,-5.56123
 93438,0.763268562,1.2661611691\H,0,-5.2007223884,1.9122964935,-0.04551
 35384\N,0,-1.737207468,-0.4996387946,1.2604158238\O,0,-1.0277224349,-1
 .247897911,2.0467279812\C,0,-2.8921638713,-0.0229659913,1.6327625628\C
 ,0,-3.5003955235,-0.2864256172,2.9733444334\H,0,-2.7979038158,-0.87317
 13829,3.5618305644\H,0,-4.430566635,-0.8439971129,2.8735567311\H,0,-3.
 7116356028,0.6481755162,3.4888299938\N,0,0.1476385611,-1.3113840384,-0
 .6578506251\O,0,0.6882136913,-2.0368629423,0.3610846243\C,0,0.58563276
 28,-1.5002533887,-1.8603859312\C,0,1.6572486232,-2.4735134128,-2.21528
 12757\H,0,2.0621586203,-2.9146199963,-1.3084413054\H,0,2.4508735287,-1
 .9718134816,-2.7637644858\H,0,1.2536845532,-3.2610200002,-2.8497527163
 \N,0,-0.9374099525,0.1551346929,-2.3565884962\O,0,-1.5866795934,0.9853
 349126,-3.1131630995\C,0,-0.0492846753,-0.6628435156,-2.8492829709\C,0
 ,0.3010331906,-0.7219374163,-4.3020002716\H,0,0.134194286,-1.721879243
 5,-4.6984725848\H,0,1.3464796087,-0.4605287878,-4.4564992055\H,0,-0.32
 67001432,-0.0131976941,-4.8386291431\H,0,-2.6839004225,1.578569028,-2.
 2372577697\H,0,0.0945375828,-1.798413416,1.1757226366\C,0,-0.178943883
 3,1.5637459506,0.0278073255\H,0,-0.3903226419,2.2843605477,-0.76148812
 58\H,0,-0.6308655178,1.8581485816,0.9747882514\C,0,1.2331658565,1.2568
 000506,0.1507736213\C,0,1.7077162725,0.7587738339,1.3230466735\H,0,0.9
 736535036,0.5329205498,2.0867154281\C,0,2.0922828566,1.5141104032,-1.0
 540665943\H,0,1.4989294267,1.4162463421,-1.958916264\H,0,2.4795592913,
 2.5319122496,-1.0231844394\H,0,2.9295072484,0.8232953286,-1.0967710366
 \C,0,3.0621061969,0.3986427008,1.6873599502\C,0,4.2014101503,1.0559429
 898,1.2127164458\C,0,3.2391882672,-0.6490591358,2.6009083027\C,0,5.463
 9412213,0.65613636,1.6103885013\H,0,4.0990241616,1.9114635167,0.566317
 5824\C,0,4.5016360888,-1.0562611683,2.9810348787\H,0,2.3685300905,-1.1
 556857309,2.9898813513\C,0,5.6225321884,-0.407757433,2.4836393297\H,0,
 6.3321872514,1.1811376142,1.2386392745\H,0,4.6158356475,-1.8774501264,
 3.6739022725\H,0,6.6109488483,-0.7215201104,2.7855905369\\Version=ES64
 L-G16RevC.01\State=1-A\HF=-1365.932532\RMSD=3.178e-09\Dipole=-0.031797
 2,-0.3231521,-0.1237365\Quadrupole=10.6886831,-5.8596384,-4.8290447,0.
 0159234,-14.4510752,9.2904835\PG=C01 [X(C18H25Co1N4O4)]\\@
 The archive entry for this job was punched.


 O WAD SOME POWER THE GIFTIE GIE US       
 TO SEE OURSELS AS OTHERS SEE US.....     
 IT WOULD FRAE MONIE A BLUNDER FREE US,   
                     AND FOOLISH NOTION...
 WHAT AIRS IN DRESS AND GAIT WAD LEA'E US,
                     AND EV'N DEVOTION....
                                          
              (ROBERT BURNS 'TO A LOUSE') 
 Job cpu time:       0 days  0 hours 20 minutes 27.6 seconds.
 Elapsed time:       0 days  0 hours  1 minutes 18.6 seconds.
 File lengths (MBytes):  RWF=    327 Int=      0 D2E=      0 Chk=     14 Scr=      1
 Normal termination of Gaussian 16 at Thu Mar  2 08:36:04 2023.
