 Entering Gaussian System, Link 0=g16
 Initial command:
 /opt/local/g16/l1.exe "/data/tmp/cjd/Gau-5015.inp" -scrdir="/data/tmp/cjd/"
 Entering Link 1 = /opt/local/g16/l1.exe PID=      5016.
  
 Copyright (c) 1988-2019, Gaussian, Inc.  All Rights Reserved.
  
 This is part of the Gaussian(R) 16 program.  It is based on
 the Gaussian(R) 09 system (copyright 2009, Gaussian, Inc.),
 the Gaussian(R) 03 system (copyright 2003, Gaussian, Inc.),
 the Gaussian(R) 98 system (copyright 1998, Gaussian, Inc.),
 the Gaussian(R) 94 system (copyright 1995, Gaussian, Inc.),
 the Gaussian 92(TM) system (copyright 1992, Gaussian, Inc.),
 the Gaussian 90(TM) system (copyright 1990, Gaussian, Inc.),
 the Gaussian 88(TM) system (copyright 1988, Gaussian, Inc.),
 the Gaussian 86(TM) system (copyright 1986, Carnegie Mellon
 University), and the Gaussian 82(TM) system (copyright 1983,
 Carnegie Mellon University). Gaussian is a federally registered
 trademark of Gaussian, Inc.
  
 This software contains proprietary and confidential information,
 including trade secrets, belonging to Gaussian, Inc.
  
 This software is provided under written license and may be
 used, copied, transmitted, or stored only in accord with that
 written license.
  
 The following legend is applicable only to US Government
 contracts under FAR:
  
                    RESTRICTED RIGHTS LEGEND
  
 Use, reproduction and disclosure by the US Government is
 subject to restrictions as set forth in subparagraphs (a)
 and (c) of the Commercial Computer Software - Restricted
 Rights clause in FAR 52.227-19.
  
 Gaussian, Inc.
 340 Quinnipiac St., Bldg. 40, Wallingford CT 06492
  
  
 ---------------------------------------------------------------
 Warning -- This program may not be used in any manner that
 competes with the business of Gaussian, Inc. or will provide
 assistance to any competitor of Gaussian, Inc.  The licensee
 of this program is prohibited from giving any competitor of
 Gaussian, Inc. access to this program.  By using this program,
 the user acknowledges that Gaussian, Inc. is engaged in the
 business of creating and licensing software in the field of
 computational chemistry and represents and warrants to the
 licensee that it is not a competitor of Gaussian, Inc. and that
 it will not use this program in any manner prohibited above.
 ---------------------------------------------------------------
  

 Cite this work as:
 Gaussian 16, Revision C.01,
 M. J. Frisch, G. W. Trucks, H. B. Schlegel, G. E. Scuseria, 
 M. A. Robb, J. R. Cheeseman, G. Scalmani, V. Barone, 
 G. A. Petersson, H. Nakatsuji, X. Li, M. Caricato, A. V. Marenich, 
 J. Bloino, B. G. Janesko, R. Gomperts, B. Mennucci, H. P. Hratchian, 
 J. V. Ortiz, A. F. Izmaylov, J. L. Sonnenberg, D. Williams-Young, 
 F. Ding, F. Lipparini, F. Egidi, J. Goings, B. Peng, A. Petrone, 
 T. Henderson, D. Ranasinghe, V. G. Zakrzewski, J. Gao, N. Rega, 
 G. Zheng, W. Liang, M. Hada, M. Ehara, K. Toyota, R. Fukuda, 
 J. Hasegawa, M. Ishida, T. Nakajima, Y. Honda, O. Kitao, H. Nakai, 
 T. Vreven, K. Throssell, J. A. Montgomery, Jr., J. E. Peralta, 
 F. Ogliaro, M. J. Bearpark, J. J. Heyd, E. N. Brothers, K. N. Kudin, 
 V. N. Staroverov, T. A. Keith, R. Kobayashi, J. Normand, 
 K. Raghavachari, A. P. Rendell, J. C. Burant, S. S. Iyengar, 
 J. Tomasi, M. Cossi, J. M. Millam, M. Klene, C. Adamo, R. Cammi, 
 J. W. Ochterski, R. L. Martin, K. Morokuma, O. Farkas, 
 J. B. Foresman, and D. J. Fox, Gaussian, Inc., Wallingford CT, 2019.
 
 ******************************************
 Gaussian 16:  ES64L-G16RevC.01  3-Jul-2019
                 2-Mar-2023 
 ******************************************
 %nproc=16
 Will use up to   16 processors via shared memory.
 %mem=60GB
 -----------------------------------------------------------
 # B3LYP/genecp em=GD3BJ int=fine scrf=(smd,solvent=acetone)
 -----------------------------------------------------------
 1/38=1,172=1/1;
 2/12=2,17=6,18=5,40=1/2;
 3/5=7,11=2,16=1,17=8,25=1,30=1,70=32201,72=19,74=-5,75=-4,124=41/1,2,3;
 4//1;
 5/5=2,38=5,53=19/2;
 6/7=2,8=2,9=2,10=2,28=1/1;
 99/5=1,9=1/99;
 --------
 Template
 --------
 Symbolic Z-matrix:
 Charge =  0 Multiplicity = 1
 Co                   -1.26179  -0.42531  -0.26491 
 N                    -1.68215   1.40404  -0.22642 
 O                    -0.89298   2.42048  -0.67762 
 C                    -2.83237   1.68665   0.29633 
 C                    -3.37642   3.06941   0.41626 
 H                    -4.3918    3.11223   0.02934 
 H                    -2.74168   3.75967  -0.13355 
 H                    -3.39957   3.36653   1.46358 
 N                    -2.88861  -0.586     0.66259 
 O                    -3.38372  -1.71316   1.05997 
 C                    -3.54535   0.53383   0.78874 
 C                    -4.90275   0.62645   1.40951 
 H                    -4.89276   1.31538   2.2516 
 H                    -5.19119  -0.36353   1.75683 
 H                    -5.63704   0.9762    0.68525 
 N                    -0.96057  -2.25881  -0.50688 
 O                    -1.60105  -3.27388   0.14532 
 C                    -0.06696  -2.55802  -1.39439 
 C                     0.29076  -3.95568  -1.77052 
 H                     1.25964  -4.21683  -1.34741 
 H                     0.352    -4.05496  -2.85128 
 H                    -0.45567  -4.64018  -1.37536 
 N                     0.17122  -0.26978  -1.49668 
 O                     0.64708   0.85558  -1.92959 
 C                     0.5779   -1.40993  -1.98357 
 C                     1.62416  -1.52401  -3.04723 
 H                     2.3955   -2.23506  -2.75989 
 H                     2.06897  -0.5419   -3.19747 
 H                     1.18395  -1.85484  -3.98765 
 H                    -0.14989   1.93746  -1.22014 
 H                    -2.38807  -2.80731   0.62207 
 C                    -0.27216  -0.3772    1.49806 
 H                    -0.6974    0.48748   2.00628 
 H                    -0.55987  -1.30639   1.98759 
 C                     1.15488  -0.25814   1.2721 
 C                     1.70465   0.98412   1.19718 
 H                     1.0296    1.818     1.34708 
 C                     1.95604  -1.52751   1.21194 
 H                     2.13033  -1.82751   0.18039 
 H                     2.91811  -1.39325   1.70007 
 H                     1.417    -2.33345   1.7032 
 C                     3.07854   1.38488   0.98904 
 C                     3.47907   2.63303   1.48791 
 C                     4.02479   0.62838   0.29023 
 C                     4.7744    3.08254   1.33597 
 H                     2.7582    3.24334   2.01271 
 C                     5.31772   1.08908   0.12588 
 H                     3.73879  -0.30316  -0.16557 
 C                     5.70434   2.30877   0.65721 
 H                     5.06263   4.04225   1.74003 
 H                     6.03084   0.49261  -0.42486 
 H                     6.71781   2.66056   0.53258 
 
 Stoichiometry    C18H25CoN4O4
 Framework group  C1[X(C18H25CoN4O4)]
 Deg. of freedom   150
 Full point group                 C1      NOp   1
 Largest Abelian subgroup         C1      NOp   1
 Largest concise Abelian subgroup C1      NOp   1
                         Standard orientation:                         
 ---------------------------------------------------------------------
 Center     Atomic      Atomic             Coordinates (Angstroms)
 Number     Number       Type             X           Y           Z
 ---------------------------------------------------------------------
      1         27           0       -1.365573    0.186894    0.187847
      2          7           0       -1.325698   -1.557030    0.881989
      3          8           0       -0.321640   -2.104473    1.624746
      4          6           0       -2.361185   -2.279693    0.596209
      5          6           0       -2.548593   -3.685833    1.054536
      6          1           0       -3.530484   -3.810072    1.505092
      7          1           0       -1.775915   -3.940085    1.775616
      8          1           0       -2.477096   -4.362834    0.204684
      9          7           0       -2.963092   -0.408582   -0.603331
     10          8           0       -3.710179    0.326921   -1.361229
     11          6           0       -3.323822   -1.608916   -0.242334
     12          6           0       -4.604559   -2.248450   -0.674990
     13          1           0       -4.409462   -3.187411   -1.188929
     14          1           0       -5.118816   -1.567732   -1.350298
     15          1           0       -5.245874   -2.449961    0.181842
     16          7           0       -1.526123    1.985813   -0.311288
     17          8           0       -2.381589    2.488595   -1.250092
     18          6           0       -0.750937    2.805204    0.323868
     19          6           0       -0.753042    4.280743    0.110172
     20          1           0        0.131190    4.574786   -0.453402
     21          1           0       -0.739995    4.803189    1.063330
     22          1           0       -1.635771    4.563924   -0.457685
     23          7           0        0.036562    0.860031    1.272223
     24          8           0        0.763835    0.135442    2.063647
     25          6           0        0.142536    2.160361    1.254991
     26          6           0        1.107321    2.918603    2.111319
     27          1           0        1.687414    3.620549    1.516440
     28          1           0        1.775285    2.204765    2.590086
     29          1           0        0.580536    3.476324    2.885315
     30          1           0        0.269784   -1.290185    1.883514
     31          1           0       -3.020962    1.704289   -1.451172
     32          6           0       -0.358332   -0.310268   -1.493830
     33          1           0       -0.549115   -1.377581   -1.599843
     34          1           0       -0.854126    0.261202   -2.277039
     35          6           0        1.049668    0.003423   -1.349548
     36          6           0        1.884452   -0.947212   -0.849038
     37          1           0        1.436624   -1.906059   -0.617542
     38          6           0        1.515266    1.345069   -1.839407
     39          1           0        1.589914    2.053699   -1.016757
     40          1           0        2.490770    1.259710   -2.311623
     41          1           0        0.805922    1.747480   -2.557980
     42          6           0        3.310058   -0.903992   -0.609715
     43          6           0        4.013315   -2.117414   -0.624160
     44          6           0        4.028492    0.262125   -0.326776
     45          6           0        5.375806   -2.157764   -0.412013
     46          1           0        3.474144   -3.033154   -0.819780
     47          6           0        5.391131    0.216051   -0.098740
     48          1           0        3.514455    1.203167   -0.240074
     49          6           0        6.074611   -0.987835   -0.152877
     50          1           0        5.897823   -3.103321   -0.440473
     51          1           0        5.925637    1.127723    0.126650
     52          1           0        7.140538   -1.017261    0.018441
 ---------------------------------------------------------------------
 Rotational constants (GHZ):           0.2649549           0.1380682           0.1092520
 General basis read from cards:  (5D, 7F)
 ======================================================================================================
                                       Pseudopotential Parameters
 ======================================================================================================
  Center     Atomic      Valence      Angular      Power
  Number     Number     Electrons     Momentum     of R      Exponent        Coefficient   SO-Coeffient
 ======================================================================================================
    1         27           17
                                      D and up 
                                                     1      434.1076104      -10.00000000    0.00000000
                                                     2       78.8402758      -66.72402760    0.00000000
                                                     2       19.6037749      -11.71922430    0.00000000
                                      S - D
                                                     0      151.2307582        3.00000000    0.00000000
                                                     1      169.6790026       20.15531100    0.00000000
                                                     2       64.9909423      413.37622440    0.00000000
                                                     2       12.5076287      133.87277050    0.00000000
                                      P - D
                                                     0       92.7319924        5.00000000    0.00000000
                                                     1      121.1910183        6.18923530    0.00000000
                                                     2       48.6265909      326.32159190    0.00000000
                                                     2       11.9966971       73.87889700    0.00000000
    2          7
                                   No pseudopotential on this center.
    3          8
                                   No pseudopotential on this center.
    4          6
                                   No pseudopotential on this center.
    5          6
                                   No pseudopotential on this center.
    6          1
                                   No pseudopotential on this center.
    7          1
                                   No pseudopotential on this center.
    8          1
                                   No pseudopotential on this center.
    9          7
                                   No pseudopotential on this center.
   10          8
                                   No pseudopotential on this center.
   11          6
                                   No pseudopotential on this center.
   12          6
                                   No pseudopotential on this center.
   13          1
                                   No pseudopotential on this center.
   14          1
                                   No pseudopotential on this center.
   15          1
                                   No pseudopotential on this center.
   16          7
                                   No pseudopotential on this center.
   17          8
                                   No pseudopotential on this center.
   18          6
                                   No pseudopotential on this center.
   19          6
                                   No pseudopotential on this center.
   20          1
                                   No pseudopotential on this center.
   21          1
                                   No pseudopotential on this center.
   22          1
                                   No pseudopotential on this center.
   23          7
                                   No pseudopotential on this center.
   24          8
                                   No pseudopotential on this center.
   25          6
                                   No pseudopotential on this center.
   26          6
                                   No pseudopotential on this center.
   27          1
                                   No pseudopotential on this center.
   28          1
                                   No pseudopotential on this center.
   29          1
                                   No pseudopotential on this center.
   30          1
                                   No pseudopotential on this center.
   31          1
                                   No pseudopotential on this center.
   32          6
                                   No pseudopotential on this center.
   33          1
                                   No pseudopotential on this center.
   34          1
                                   No pseudopotential on this center.
   35          6
                                   No pseudopotential on this center.
   36          6
                                   No pseudopotential on this center.
   37          1
                                   No pseudopotential on this center.
   38          6
                                   No pseudopotential on this center.
   39          1
                                   No pseudopotential on this center.
   40          1
                                   No pseudopotential on this center.
   41          1
                                   No pseudopotential on this center.
   42          6
                                   No pseudopotential on this center.
   43          6
                                   No pseudopotential on this center.
   44          6
                                   No pseudopotential on this center.
   45          6
                                   No pseudopotential on this center.
   46          1
                                   No pseudopotential on this center.
   47          6
                                   No pseudopotential on this center.
   48          1
                                   No pseudopotential on this center.
   49          6
                                   No pseudopotential on this center.
   50          1
                                   No pseudopotential on this center.
   51          1
                                   No pseudopotential on this center.
   52          1
                                   No pseudopotential on this center.
 ======================================================================================================
 There are   464 symmetry adapted cartesian basis functions of A   symmetry.
 There are   436 symmetry adapted basis functions of A   symmetry.
   436 basis functions,   880 primitive gaussians,   464 cartesian basis functions
   105 alpha electrons      105 beta electrons
       nuclear repulsion energy      3000.2253871190 Hartrees.
 NAtoms=   52 NActive=   52 NUniq=   52 SFac= 1.00D+00 NAtFMM=   60 NAOKFM=F Big=F
 Integral buffers will be    131072 words long.
 Raffenetti 2 integral format.
 Two-electron integral symmetry is turned on.
 Nuclear repulsion after empirical dispersion term =     3000.1013393691 Hartrees.
 ------------------------------------------------------------------------------
 Polarizable Continuum Model (PCM)
 =================================
 Model                : PCM.
 Atomic radii         : SMD-Coulomb.
 Polarization charges : Total charges.
 Charge compensation  : None.
 Solution method      : On-the-fly selection.
 Cavity type          : VdW (van der Waals Surface) (Alpha=1.000).
 Cavity algorithm     : GePol (No added spheres)
                        Default sphere list used, NSphG=   52.
                        Lebedev-Laikov grids with approx.  5.0 points / Ang**2.
                        Smoothing algorithm: York/Karplus (Gamma=1.0000).
                        Polarization charges: spherical gaussians, with
                                              point-specific exponents (IZeta= 3).
                        Self-potential: point-specific (ISelfS= 7).
                        Self-field    : sphere-specific E.n sum rule (ISelfD= 2).
 Solvent              : Acetone, Eps=  20.493000 Eps(inf)=   1.846337
 ------------------------------------------------------------------------------
 ------------------------------------------------------------------------------
 Atomic radii for non-electrostatic terms: SMD-CDS.
 ------------------------------------------------------------------------------
 Nuclear repulsion after PCM non-electrostatic terms =     3000.0949309925 Hartrees.
 One-electron integrals computed using PRISM.
   1 Symmetry operations used in ECPInt.
 ECPInt:  NShTT=   13203 NPrTT=   81964 LenC2=   11353 LenP2D=   39336.
 LDataN:  DoStor=T MaxTD1= 4 Len=   56
 NBasis=   436 RedAO= T EigKep=  4.31D-04  NBF=   436
 NBsUse=   436 1.00D-06 EigRej= -1.00D+00 NBFU=   436
 ExpMin= 2.30D-02 ExpMax= 5.48D+03 ExpMxC= 8.25D+02 IAcc=3 IRadAn=         5 AccDes= 0.00D+00
 Harris functional with IExCor=  402 and IRadAn=       5 diagonalized for initial guess.
 HarFok:  IExCor=  402 AccDes= 0.00D+00 IRadAn=         5 IDoV= 1 UseB2=F ITyADJ=14
 ICtDFT=  3500011 ScaDFX=  1.000000  1.000000  1.000000  1.000000
 FoFCou: FMM=F IPFlag=           0 FMFlag=      100000 FMFlg1=           0
         NFxFlg=           0 DoJE=T BraDBF=F KetDBF=T FulRan=T
         wScrn=  0.000000 ICntrl=       500 IOpCl=  0 I1Cent=   200000004 NGrid=           0
         NMat0=    1 NMatS0=      1 NMatT0=    0 NMatD0=    1 NMtDS0=    0 NMtDT0=    0
 Petite list used in FoFCou.
 Requested convergence on RMS density matrix=1.00D-08 within 128 cycles.
 Requested convergence on MAX density matrix=1.00D-06.
 Requested convergence on             energy=1.00D-06.
 No special actions if energy rises.
 Inv3:  Mode=1 IEnd=    40605123.
 Iteration    1 A*A^-1 deviation from unit magnitude is 3.55D-15 for   2753.
 Iteration    1 A*A^-1 deviation from orthogonality  is 2.98D-15 for   1341    474.
 Iteration    1 A^-1*A deviation from unit magnitude is 4.11D-15 for    911.
 Iteration    1 A^-1*A deviation from orthogonality  is 1.31D-14 for   3488   3461.
 EnCoef did     4 forward-backward iterations
 Error on total polarization charges =  0.04557
 SCF Done:  E(RB3LYP) =  -1365.93203870     A.U. after   20 cycles
            NFock= 20  Conv=0.74D-08     -V/T= 2.0505
 SMD-CDS (non-electrostatic) energy       (kcal/mol) =      -4.02
 (included in total energy above)

 **********************************************************************

            Population analysis using the SCF Density.

 **********************************************************************

 Orbital symmetries:
       Occupied  (A) (A) (A) (A) (A) (A) (A) (A) (A) (A) (A) (A)
                 (A) (A) (A) (A) (A) (A) (A) (A) (A) (A) (A) (A)
                 (A) (A) (A) (A) (A) (A) (A) (A) (A) (A) (A) (A)
                 (A) (A) (A) (A) (A) (A) (A) (A) (A) (A) (A) (A)
                 (A) (A) (A) (A) (A) (A) (A) (A) (A) (A) (A) (A)
                 (A) (A) (A) (A) (A) (A) (A) (A) (A) (A) (A) (A)
                 (A) (A) (A) (A) (A) (A) (A) (A) (A) (A) (A) (A)
                 (A) (A) (A) (A) (A) (A) (A) (A) (A) (A) (A) (A)
                 (A) (A) (A) (A) (A) (A) (A) (A) (A)
       Virtual   (A) (A) (A) (A) (A) (A) (A) (A) (A) (A) (A) (A)
                 (A) (A) (A) (A) (A) (A) (A) (A) (A) (A) (A) (A)
                 (A) (A) (A) (A) (A) (A) (A) (A) (A) (A) (A) (A)
                 (A) (A) (A) (A) (A) (A) (A) (A) (A) (A) (A) (A)
                 (A) (A) (A) (A) (A) (A) (A) (A) (A) (A) (A) (A)
                 (A) (A) (A) (A) (A) (A) (A) (A) (A) (A) (A) (A)
                 (A) (A) (A) (A) (A) (A) (A) (A) (A) (A) (A) (A)
                 (A) (A) (A) (A) (A) (A) (A) (A) (A) (A) (A) (A)
                 (A) (A) (A) (A) (A) (A) (A) (A) (A) (A) (A) (A)
                 (A) (A) (A) (A) (A) (A) (A) (A) (A) (A) (A) (A)
                 (A) (A) (A) (A) (A) (A) (A) (A) (A) (A) (A) (A)
                 (A) (A) (A) (A) (A) (A) (A) (A) (A) (A) (A) (A)
                 (A) (A) (A) (A) (A) (A) (A) (A) (A) (A) (A) (A)
                 (A) (A) (A) (A) (A) (A) (A) (A) (A) (A) (A) (A)
                 (A) (A) (A) (A) (A) (A) (A) (A) (A) (A) (A) (A)
                 (A) (A) (A) (A) (A) (A) (A) (A) (A) (A) (A) (A)
                 (A) (A) (A) (A) (A) (A) (A) (A) (A) (A) (A) (A)
                 (A) (A) (A) (A) (A) (A) (A) (A) (A) (A) (A) (A)
                 (A) (A) (A) (A) (A) (A) (A) (A) (A) (A) (A) (A)
                 (A) (A) (A) (A) (A) (A) (A) (A) (A) (A) (A) (A)
                 (A) (A) (A) (A) (A) (A) (A) (A) (A) (A) (A) (A)
                 (A) (A) (A) (A) (A) (A) (A) (A) (A) (A) (A) (A)
                 (A) (A) (A) (A) (A) (A) (A) (A) (A) (A) (A) (A)
                 (A) (A) (A) (A) (A) (A) (A) (A) (A) (A) (A) (A)
                 (A) (A) (A) (A) (A) (A) (A) (A) (A) (A) (A) (A)
                 (A) (A) (A) (A) (A) (A) (A) (A) (A) (A) (A) (A)
                 (A) (A) (A) (A) (A) (A) (A) (A) (A) (A) (A) (A)
                 (A) (A) (A) (A) (A) (A) (A)
 The electronic state is 1-A.
 Alpha  occ. eigenvalues --  -19.16662 -19.16459 -19.12735 -19.12517 -14.41097
 Alpha  occ. eigenvalues --  -14.40816 -14.40458 -14.40370 -10.23652 -10.23586
 Alpha  occ. eigenvalues --  -10.21242 -10.21241 -10.18639 -10.18542 -10.17603
 Alpha  occ. eigenvalues --  -10.17563 -10.17539 -10.17496 -10.17477 -10.17462
 Alpha  occ. eigenvalues --  -10.17438 -10.17421 -10.17182 -10.16802 -10.16790
 Alpha  occ. eigenvalues --  -10.15930  -3.74299  -2.44326  -2.43578  -2.42420
 Alpha  occ. eigenvalues --   -1.09009  -1.08441  -1.06920  -1.06293  -0.90565
 Alpha  occ. eigenvalues --   -0.89380  -0.85841  -0.81836  -0.81028  -0.80533
 Alpha  occ. eigenvalues --   -0.75399  -0.74623  -0.74259  -0.74161  -0.70614
 Alpha  occ. eigenvalues --   -0.70493  -0.68601  -0.66417  -0.62276  -0.60295
 Alpha  occ. eigenvalues --   -0.60140  -0.58863  -0.54850  -0.53552  -0.53017
 Alpha  occ. eigenvalues --   -0.52064  -0.51266  -0.50817  -0.49541  -0.48947
 Alpha  occ. eigenvalues --   -0.47647  -0.46875  -0.46735  -0.46200  -0.45360
 Alpha  occ. eigenvalues --   -0.44430  -0.43485  -0.42565  -0.42490  -0.42294
 Alpha  occ. eigenvalues --   -0.42057  -0.41865  -0.41503  -0.40659  -0.40552
 Alpha  occ. eigenvalues --   -0.39958  -0.39854  -0.39118  -0.38852  -0.38269
 Alpha  occ. eigenvalues --   -0.38055  -0.37923  -0.37533  -0.37277  -0.36924
 Alpha  occ. eigenvalues --   -0.36547  -0.34888  -0.34520  -0.34262  -0.33357
 Alpha  occ. eigenvalues --   -0.33118  -0.30911  -0.30497  -0.28282  -0.27768
 Alpha  occ. eigenvalues --   -0.27625  -0.26762  -0.26206  -0.25070  -0.24999
 Alpha  occ. eigenvalues --   -0.24911  -0.22271  -0.19918  -0.19776  -0.19573
 Alpha virt. eigenvalues --   -0.09160  -0.03804  -0.03305  -0.00307   0.00287
 Alpha virt. eigenvalues --    0.00465   0.02655   0.02807   0.03255   0.06384
 Alpha virt. eigenvalues --    0.06718   0.06848   0.07526   0.11200   0.12417
 Alpha virt. eigenvalues --    0.12628   0.13569   0.14439   0.14729   0.14845
 Alpha virt. eigenvalues --    0.15485   0.15900   0.16171   0.17049   0.17281
 Alpha virt. eigenvalues --    0.17350   0.17771   0.18067   0.18216   0.18657
 Alpha virt. eigenvalues --    0.19321   0.19545   0.20213   0.20460   0.21760
 Alpha virt. eigenvalues --    0.22367   0.23010   0.23351   0.23734   0.24001
 Alpha virt. eigenvalues --    0.24733   0.24967   0.25456   0.25799   0.26676
 Alpha virt. eigenvalues --    0.26836   0.28480   0.29214   0.29520   0.30422
 Alpha virt. eigenvalues --    0.30969   0.31709   0.32297   0.33871   0.34680
 Alpha virt. eigenvalues --    0.35608   0.36349   0.36742   0.40323   0.41022
 Alpha virt. eigenvalues --    0.41539   0.42644   0.43159   0.44666   0.47068
 Alpha virt. eigenvalues --    0.48564   0.50202   0.50999   0.52449   0.53087
 Alpha virt. eigenvalues --    0.53689   0.54592   0.55142   0.55263   0.56241
 Alpha virt. eigenvalues --    0.56832   0.57122   0.57688   0.58639   0.58809
 Alpha virt. eigenvalues --    0.59218   0.59651   0.60310   0.60441   0.61135
 Alpha virt. eigenvalues --    0.61399   0.62307   0.62543   0.62979   0.63694
 Alpha virt. eigenvalues --    0.64266   0.65065   0.65854   0.66200   0.67140
 Alpha virt. eigenvalues --    0.68114   0.68369   0.69296   0.69973   0.70344
 Alpha virt. eigenvalues --    0.70648   0.72260   0.72755   0.73012   0.74575
 Alpha virt. eigenvalues --    0.75119   0.76084   0.76611   0.77194   0.78640
 Alpha virt. eigenvalues --    0.79394   0.80407   0.81580   0.82529   0.83662
 Alpha virt. eigenvalues --    0.83815   0.84491   0.84594   0.85242   0.85379
 Alpha virt. eigenvalues --    0.86231   0.86437   0.86563   0.87919   0.88210
 Alpha virt. eigenvalues --    0.88419   0.88842   0.89586   0.90002   0.90578
 Alpha virt. eigenvalues --    0.91009   0.91311   0.91770   0.91797   0.93072
 Alpha virt. eigenvalues --    0.93360   0.94055   0.94648   0.95308   0.95654
 Alpha virt. eigenvalues --    0.95811   0.96858   0.97690   0.97811   0.98616
 Alpha virt. eigenvalues --    0.99520   1.01087   1.02188   1.02478   1.02605
 Alpha virt. eigenvalues --    1.03709   1.03857   1.04697   1.04908   1.05668
 Alpha virt. eigenvalues --    1.06936   1.07982   1.09260   1.09997   1.10472
 Alpha virt. eigenvalues --    1.11317   1.12761   1.14090   1.15193   1.16174
 Alpha virt. eigenvalues --    1.17167   1.17742   1.19467   1.20070   1.22037
 Alpha virt. eigenvalues --    1.22374   1.23248   1.24834   1.26157   1.26217
 Alpha virt. eigenvalues --    1.28282   1.28421   1.29598   1.30498   1.32006
 Alpha virt. eigenvalues --    1.33713   1.34223   1.35578   1.35958   1.36761
 Alpha virt. eigenvalues --    1.36939   1.37960   1.38099   1.39296   1.39644
 Alpha virt. eigenvalues --    1.40168   1.41391   1.42589   1.44011   1.44438
 Alpha virt. eigenvalues --    1.44827   1.45338   1.46843   1.48582   1.49530
 Alpha virt. eigenvalues --    1.50119   1.50496   1.51671   1.52508   1.53048
 Alpha virt. eigenvalues --    1.55297   1.59395   1.60748   1.61200   1.63092
 Alpha virt. eigenvalues --    1.65300   1.67299   1.71746   1.74052   1.74503
 Alpha virt. eigenvalues --    1.75487   1.76199   1.76728   1.77913   1.78171
 Alpha virt. eigenvalues --    1.79528   1.79824   1.80233   1.80421   1.81306
 Alpha virt. eigenvalues --    1.81947   1.82592   1.83084   1.84523   1.86022
 Alpha virt. eigenvalues --    1.87468   1.87999   1.88685   1.89480   1.90313
 Alpha virt. eigenvalues --    1.91753   1.92390   1.92977   1.94186   1.94953
 Alpha virt. eigenvalues --    1.96583   1.97575   1.98920   1.99256   1.99582
 Alpha virt. eigenvalues --    2.00347   2.01089   2.01437   2.02967   2.05573
 Alpha virt. eigenvalues --    2.06339   2.08466   2.11132   2.11480   2.12551
 Alpha virt. eigenvalues --    2.12975   2.13968   2.14744   2.15449   2.16060
 Alpha virt. eigenvalues --    2.16214   2.17704   2.18321   2.19734   2.20400
 Alpha virt. eigenvalues --    2.23030   2.23353   2.24062   2.27753   2.28238
 Alpha virt. eigenvalues --    2.28690   2.29787   2.30528   2.30713   2.32410
 Alpha virt. eigenvalues --    2.32776   2.33059   2.33151   2.33313   2.33754
 Alpha virt. eigenvalues --    2.34701   2.35627   2.36219   2.37672   2.38635
 Alpha virt. eigenvalues --    2.41718   2.43665   2.46271   2.48490   2.51388
 Alpha virt. eigenvalues --    2.51769   2.53113   2.53989   2.54316   2.55732
 Alpha virt. eigenvalues --    2.56542   2.57222   2.58171   2.59037   2.60558
 Alpha virt. eigenvalues --    2.64175   2.64431   2.65132   2.66082   2.66566
 Alpha virt. eigenvalues --    2.67768   2.67904   2.71451   2.74767   2.75220
 Alpha virt. eigenvalues --    2.76465   2.77566   2.78565   2.81941   2.85129
 Alpha virt. eigenvalues --    2.88068   2.90846   2.91439   2.93403   2.96394
 Alpha virt. eigenvalues --    3.02532   3.05227   3.06026   3.08921   3.10209
 Alpha virt. eigenvalues --    3.10870   3.22145   3.29640   3.32433   3.46556
 Alpha virt. eigenvalues --   21.85142
          Condensed to atoms (all electrons):
 Mulliken charges:
               1
     1  Co   0.316120
     2  N   -0.168063
     3  O   -0.572294
     4  C    0.323317
     5  C   -0.546696
     6  H    0.198823
     7  H    0.199591
     8  H    0.204440
     9  N   -0.064633
    10  O   -0.555557
    11  C    0.267266
    12  C   -0.547440
    13  H    0.186392
    14  H    0.189827
    15  H    0.188803
    16  N   -0.166906
    17  O   -0.571928
    18  C    0.329559
    19  C   -0.546111
    20  H    0.205343
    21  H    0.197352
    22  H    0.200163
    23  N   -0.080249
    24  O   -0.552782
    25  C    0.258627
    26  C   -0.548464
    27  H    0.183986
    28  H    0.190798
    29  H    0.189310
    30  H    0.472411
    31  H    0.469419
    32  C   -0.399411
    33  H    0.191385
    34  H    0.183978
    35  C    0.228953
    36  C   -0.245266
    37  H    0.151885
    38  C   -0.553994
    39  H    0.187706
    40  H    0.171305
    41  H    0.171704
    42  C    0.153750
    43  C   -0.204570
    44  C   -0.202641
    45  C   -0.153613
    46  H    0.153735
    47  C   -0.157610
    48  H    0.161867
    49  C   -0.150706
    50  H    0.154004
    51  H    0.153453
    52  H    0.153666
 Sum of Mulliken charges =  -0.00000
 Mulliken charges with hydrogens summed into heavy atoms:
               1
     1  Co   0.316120
     2  N   -0.168063
     3  O   -0.099883
     4  C    0.323317
     5  C    0.056157
     9  N   -0.064633
    10  O   -0.555557
    11  C    0.267266
    12  C    0.017582
    16  N   -0.166906
    17  O   -0.102509
    18  C    0.329559
    19  C    0.056747
    23  N   -0.080249
    24  O   -0.552782
    25  C    0.258627
    26  C    0.015630
    32  C   -0.024049
    35  C    0.228953
    36  C   -0.093381
    38  C   -0.023279
    42  C    0.153750
    43  C   -0.050835
    44  C   -0.040775
    45  C    0.000391
    47  C   -0.004157
    49  C    0.002960
 Electronic spatial extent (au):  <R**2>=          10306.4149
 Charge=             -0.0000 electrons
 Dipole moment (field-independent basis, Debye):
    X=              0.2485    Y=              0.3816    Z=              0.6003  Tot=              0.7535
 Quadrupole moment (field-independent basis, Debye-Ang):
   XX=           -160.0600   YY=           -136.3258   ZZ=           -174.8786
   XY=             17.3194   XZ=             -9.9208   YZ=              7.8819
 Traceless Quadrupole moment (field-independent basis, Debye-Ang):
   XX=             -2.9719   YY=             20.7623   ZZ=            -17.7904
   XY=             17.3194   XZ=             -9.9208   YZ=              7.8819
 Octapole moment (field-independent basis, Debye-Ang**2):
  XXX=              8.3369  YYY=             20.5204  ZZZ=             11.0386  XYY=            -33.1128
  XXY=            -61.0959  XXZ=             44.7692  XZZ=            -37.0695  YZZ=             13.1423
  YYZ=             20.8313  XYZ=             -1.3029
 Hexadecapole moment (field-independent basis, Debye-Ang**3):
 XXXX=          -7754.7475 YYYY=          -3585.4503 ZZZZ=          -1401.0500 XXXY=            114.6466
 XXXZ=            -21.6254 YYYX=             83.3023 YYYZ=             64.5323 ZZZX=             25.1501
 ZZZY=            -14.0804 XXYY=          -1826.0175 XXZZ=          -1732.6301 YYZZ=           -878.8414
 XXYZ=              2.1564 YYXZ=            -25.8782 ZZXY=             25.6846
 N-N= 3.000094930992D+03 E-N=-9.191799878219D+03  KE= 1.300226159243D+03
 Unable to Open any file for archive entry.
 1\1\GINC-N204\SP\RB3LYP\GenECP\C18H25Co1N4O4\CJD\02-Mar-2023\0\\# B3LY
 P/genecp em=GD3BJ int=fine scrf=(smd,solvent=acetone)\\Template\\0,1\C
 o,0,-1.2617935427,-0.4253063717,-0.2649088808\N,0,-1.6821500822,1.4040
 405527,-0.2264193766\O,0,-0.8929818029,2.4204769107,-0.6776236751\C,0,
 -2.8323741719,1.6866451563,0.2963283725\C,0,-3.3764159845,3.0694137188
 ,0.4162643135\H,0,-4.3918004897,3.1122326692,0.0293442067\H,0,-2.74168
 18673,3.7596694396,-0.1335478673\H,0,-3.3995684328,3.3665301138,1.4635
 828307\N,0,-2.8886142613,-0.5860037879,0.6625877172\O,0,-3.3837178955,
 -1.7131572979,1.0599672952\C,0,-3.5453454645,0.533834834,0.7887353726\
 C,0,-4.9027492581,0.6264452006,1.4095075575\H,0,-4.892759254,1.3153773
 699,2.2515984192\H,0,-5.1911941716,-0.3635275232,1.7568288447\H,0,-5.6
 370353665,0.9762006423,0.6852507914\N,0,-0.9605686048,-2.2588106072,-0
 .5068805663\O,0,-1.601054103,-3.2738847199,0.1453210902\C,0,-0.0669583
 222,-2.5580211393,-1.3943893503\C,0,0.2907617019,-3.9556774885,-1.7705
 246748\H,0,1.2596376084,-4.2168319609,-1.3474139073\H,0,0.3520015357,-
 4.0549584792,-2.8512765769\H,0,-0.4556702427,-4.640181674,-1.375360302
 5\N,0,0.1712180316,-0.2697823932,-1.4966796077\O,0,0.6470841592,0.8555
 834548,-1.9295894447\C,0,0.5779019912,-1.4099264531,-1.9835732006\C,0,
 1.624163216,-1.5240050853,-3.0472281852\H,0,2.395496058,-2.2350582067,
 -2.759885985\H,0,2.0689745508,-0.5419010838,-3.1974739898\H,0,1.183953
 9946,-1.8548403981,-3.9876476493\H,0,-0.1498938272,1.9374579686,-1.220
 1395781\H,0,-2.388069659,-2.80731413,0.6220665512\C,0,-0.2721625116,-0
 .3772046533,1.4980592666\H,0,-0.6974027473,0.4874768836,2.0062826134\H
 ,0,-0.5598678882,-1.3063929061,1.987589712\C,0,1.154879771,-0.25814214
 16,1.2720961293\C,0,1.7046519408,0.9841211639,1.1971795723\H,0,1.02959
 52372,1.8180011402,1.3470833105\C,0,1.9560376828,-1.5275050207,1.21193
 97401\H,0,2.1303253413,-1.8275119244,0.18038691\H,0,2.918110053,-1.393
 2505954,1.7000740876\H,0,1.4169965406,-2.3334479023,1.7032035793\C,0,3
 .0785385748,1.3848832682,0.9890413141\C,0,3.4790737573,2.6330313155,1.
 4879088221\C,0,4.0247936607,0.6283782306,0.2902324725\C,0,4.7744015182
 ,3.0825393142,1.3359698512\H,0,2.758200986,3.2433416612,2.012709555\C,
 0,5.3177157784,1.0890831729,0.1258812876\H,0,3.7387883444,-0.303155805
 9,-0.1655692311\C,0,5.7043359198,2.3087679787,0.6572094576\H,0,5.06263
 3036,4.0422509603,1.7400297342\H,0,6.0308395871,0.4926101752,-0.424862
 333\H,0,6.7178069252,2.6605637756,0.532583724\\Version=ES64L-G16RevC.0
 1\State=1-A\HF=-1365.9320387\RMSD=7.394e-09\Dipole=0.1116415,-0.019954
 2,-0.2738786\Quadrupole=5.378775,-0.7448739,-4.6339011,-15.4081621,-1.
 6408632,14.0719071\PG=C01 [X(C18H25Co1N4O4)]\\@
 The archive entry for this job was punched.


 "WOULD YOU TELL ME PLEASE, WHICH WAY I OUGHT TO WALK FROM HERE?"
 "THAT DEPENDS A GREAT DEAL ON WHERE YOU WANT TO GO," SAID THE CAT.
 "I DON'T MUCH CARE WHERE -- ", SAID ALICE.
 "THEN IT DOESN'T MATTER WHICH WAY YOU WALK," SAID THE CAT.

                                      -- LEWIS CARROLL
 Job cpu time:       0 days  0 hours 23 minutes 42.3 seconds.
 Elapsed time:       0 days  0 hours  1 minutes 31.7 seconds.
 File lengths (MBytes):  RWF=    330 Int=      0 D2E=      0 Chk=     14 Scr=      1
 Normal termination of Gaussian 16 at Thu Mar  2 08:48:03 2023.
