 Entering Gaussian System, Link 0=g16
 Initial command:
 /opt/local/g16/l1.exe "/data/tmp/cjd/Gau-8563.inp" -scrdir="/data/tmp/cjd/"
 Entering Link 1 = /opt/local/g16/l1.exe PID=      8564.
  
 Copyright (c) 1988-2019, Gaussian, Inc.  All Rights Reserved.
  
 This is part of the Gaussian(R) 16 program.  It is based on
 the Gaussian(R) 09 system (copyright 2009, Gaussian, Inc.),
 the Gaussian(R) 03 system (copyright 2003, Gaussian, Inc.),
 the Gaussian(R) 98 system (copyright 1998, Gaussian, Inc.),
 the Gaussian(R) 94 system (copyright 1995, Gaussian, Inc.),
 the Gaussian 92(TM) system (copyright 1992, Gaussian, Inc.),
 the Gaussian 90(TM) system (copyright 1990, Gaussian, Inc.),
 the Gaussian 88(TM) system (copyright 1988, Gaussian, Inc.),
 the Gaussian 86(TM) system (copyright 1986, Carnegie Mellon
 University), and the Gaussian 82(TM) system (copyright 1983,
 Carnegie Mellon University). Gaussian is a federally registered
 trademark of Gaussian, Inc.
  
 This software contains proprietary and confidential information,
 including trade secrets, belonging to Gaussian, Inc.
  
 This software is provided under written license and may be
 used, copied, transmitted, or stored only in accord with that
 written license.
  
 The following legend is applicable only to US Government
 contracts under FAR:
  
                    RESTRICTED RIGHTS LEGEND
  
 Use, reproduction and disclosure by the US Government is
 subject to restrictions as set forth in subparagraphs (a)
 and (c) of the Commercial Computer Software - Restricted
 Rights clause in FAR 52.227-19.
  
 Gaussian, Inc.
 340 Quinnipiac St., Bldg. 40, Wallingford CT 06492
  
  
 ---------------------------------------------------------------
 Warning -- This program may not be used in any manner that
 competes with the business of Gaussian, Inc. or will provide
 assistance to any competitor of Gaussian, Inc.  The licensee
 of this program is prohibited from giving any competitor of
 Gaussian, Inc. access to this program.  By using this program,
 the user acknowledges that Gaussian, Inc. is engaged in the
 business of creating and licensing software in the field of
 computational chemistry and represents and warrants to the
 licensee that it is not a competitor of Gaussian, Inc. and that
 it will not use this program in any manner prohibited above.
 ---------------------------------------------------------------
  

 Cite this work as:
 Gaussian 16, Revision C.01,
 M. J. Frisch, G. W. Trucks, H. B. Schlegel, G. E. Scuseria, 
 M. A. Robb, J. R. Cheeseman, G. Scalmani, V. Barone, 
 G. A. Petersson, H. Nakatsuji, X. Li, M. Caricato, A. V. Marenich, 
 J. Bloino, B. G. Janesko, R. Gomperts, B. Mennucci, H. P. Hratchian, 
 J. V. Ortiz, A. F. Izmaylov, J. L. Sonnenberg, D. Williams-Young, 
 F. Ding, F. Lipparini, F. Egidi, J. Goings, B. Peng, A. Petrone, 
 T. Henderson, D. Ranasinghe, V. G. Zakrzewski, J. Gao, N. Rega, 
 G. Zheng, W. Liang, M. Hada, M. Ehara, K. Toyota, R. Fukuda, 
 J. Hasegawa, M. Ishida, T. Nakajima, Y. Honda, O. Kitao, H. Nakai, 
 T. Vreven, K. Throssell, J. A. Montgomery, Jr., J. E. Peralta, 
 F. Ogliaro, M. J. Bearpark, J. J. Heyd, E. N. Brothers, K. N. Kudin, 
 V. N. Staroverov, T. A. Keith, R. Kobayashi, J. Normand, 
 K. Raghavachari, A. P. Rendell, J. C. Burant, S. S. Iyengar, 
 J. Tomasi, M. Cossi, J. M. Millam, M. Klene, C. Adamo, R. Cammi, 
 J. W. Ochterski, R. L. Martin, K. Morokuma, O. Farkas, 
 J. B. Foresman, and D. J. Fox, Gaussian, Inc., Wallingford CT, 2019.
 
 ******************************************
 Gaussian 16:  ES64L-G16RevC.01  3-Jul-2019
                 2-Mar-2023 
 ******************************************
 %nproc=16
 Will use up to   16 processors via shared memory.
 %mem=60GB
 -----------------------------------------------------------
 # B3LYP/genecp em=GD3BJ int=fine scrf=(smd,solvent=acetone)
 -----------------------------------------------------------
 1/38=1,172=1/1;
 2/12=2,17=6,18=5,40=1/2;
 3/5=7,11=2,16=1,17=8,25=1,30=1,70=32201,72=19,74=-5,75=-4,124=41/1,2,3;
 4//1;
 5/5=2,38=5,53=19/2;
 6/7=2,8=2,9=2,10=2,28=1/1;
 99/5=1,9=1/99;
 --------
 Template
 --------
 Symbolic Z-matrix:
 Charge =  0 Multiplicity = 1
 Co                   -1.16422  -0.60844  -0.42027 
 N                    -1.17378   1.25675  -0.2164 
 O                    -0.26765   2.13345  -0.73743 
 C                    -2.17112   1.72472   0.4644 
 C                    -2.41672   3.17734   0.69706 
 H                    -2.39428   3.39361   1.76352 
 H                    -3.39854   3.456     0.3191 
 H                    -1.65425   3.76386   0.19101 
 N                    -2.65542  -0.50833   0.73145 
 O                    -3.31252  -1.53973   1.16095 
 C                    -3.0344    0.7072    1.01155 
 C                    -4.23391   1.02728   1.84485 
 H                    -4.94319   1.63525   1.28592 
 H                    -3.94332   1.57224   2.74112 
 H                    -4.71255   0.09385   2.13401 
 N                    -1.35605  -2.42914  -0.85231 
 O                    -2.1824   -3.32442  -0.23853 
 C                    -0.63157  -2.82946  -1.8473 
 C                    -0.65187  -4.21977  -2.38511 
 H                    -0.76886  -4.20707  -3.46612 
 H                    -1.46856  -4.77474  -1.93081 
 H                     0.2874   -4.71829  -2.15059 
 N                     0.14277  -0.65958  -1.77972 
 O                     0.84908   0.35948  -2.15248 
 C                     0.23127  -1.8089   -2.39039 
 C                     1.15213  -2.0592   -3.5422 
 H                     1.75435  -1.16682  -3.70116 
 H                     0.58898  -2.2715   -4.45001 
 H                     1.80457  -2.90495  -3.33543 
 H                     0.32819   1.54551  -1.34791 
 H                    -2.72704  -2.74858   0.4276 
 C                     0.13399  -1.07018   1.06966 
 H                    -0.52162  -1.38554   1.87993 
 H                     0.6909   -1.91103   0.65763 
 C                     0.98909   0.04736   1.41761 
 C                     2.19939   0.16599   0.81106 
 H                     2.47828  -0.61469   0.11412 
 C                     0.52961   0.97282   2.50892 
 H                     0.03438   1.849     2.09812 
 H                    -0.17938   0.46284   3.1562 
 H                     1.37705   1.30942   3.10082 
 C                     3.22185   1.17363   1.0064 
 C                     2.94009   2.51501   1.28015 
 C                     4.5642    0.79482   0.87648 
 C                     3.9627    3.43018   1.44695 
 H                     1.91726   2.8498    1.3087 
 C                     5.58257   1.70766   1.06154 
 H                     4.79998  -0.23427   0.64557 
 C                     5.28626   3.03079   1.35389 
 H                     3.72628   4.46507   1.648 
 H                     6.61205   1.39205   0.97147 
 H                     6.08236   3.74717   1.49384 
 
 Stoichiometry    C18H25CoN4O4
 Framework group  C1[X(C18H25CoN4O4)]
 Deg. of freedom   150
 Full point group                 C1      NOp   1
 Largest Abelian subgroup         C1      NOp   1
 Largest concise Abelian subgroup C1      NOp   1
                         Standard orientation:                         
 ---------------------------------------------------------------------
 Center     Atomic      Atomic             Coordinates (Angstroms)
 Number     Number       Type             X           Y           Z
 ---------------------------------------------------------------------
      1         27           0        1.404346   -0.001561    0.161843
      2          7           0        0.414827    1.307301    1.071957
      3          8           0       -0.672994    1.093618    1.867016
      4          6           0        0.856593    2.516921    0.934714
      5          6           0        0.267878    3.704877    1.617893
      6          1           0       -0.093771    4.418635    0.880081
      7          1           0        1.024280    4.201804    2.222365
      8          1           0       -0.555492    3.391225    2.254404
      9          7           0        2.342054    1.497775   -0.496061
     10          8           0        3.321810    1.428489   -1.341832
     11          6           0        1.975046    2.632047    0.031507
     12          6           0        2.627240    3.939795   -0.284883
     13          1           0        3.028220    4.401004    0.616010
     14          1           0        1.911778    4.625730   -0.734686
     15          1           0        3.439134    3.759928   -0.986651
     16          7           0        2.588323   -1.299605   -0.510234
     17          8           0        3.599083   -1.089509   -1.402050
     18          6           0        2.407365   -2.492624   -0.042156
     19          6           0        3.251873   -3.666150   -0.405858
     20          1           0        3.578315   -4.190906    0.488847
     21          1           0        4.115477   -3.331752   -0.974827
     22          1           0        2.674455   -4.359716   -1.015213
     23          7           0        0.640058   -1.485178    1.041450
     24          8           0       -0.386672   -1.418926    1.827415
     25          6           0        1.286846   -2.603335    0.859587
     26          6           0        0.900132   -3.892398    1.512332
     27          1           0       -0.021934   -3.733356    2.068019
     28          1           0        1.674771   -4.225855    2.201586
     29          1           0        0.744682   -4.669021    0.766400
     30          1           0       -0.734946    0.061712    1.935749
     31          1           0        3.612510   -0.062162   -1.529845
     32          6           0        0.235993   -0.172585   -1.488666
     33          1           0        0.765635    0.424525   -2.229447
     34          1           0        0.292378   -1.235774   -1.719742
     35          6           0       -1.121890    0.273807   -1.247749
     36          6           0       -2.056645   -0.634554   -0.863172
     37          1           0       -1.737727   -1.667014   -0.790572
     38          6           0       -1.450595    1.713047   -1.529024
     39          1           0       -1.396939    2.312265   -0.623618
     40          1           0       -0.741598    2.124688   -2.242883
     41          1           0       -2.456278    1.799162   -1.932767
     42          6           0       -3.464274   -0.432310   -0.586371
     43          6           0       -3.975048    0.726644    0.004865
     44          6           0       -4.358567   -1.466679   -0.890671
     45          6           0       -5.329322    0.854002    0.251438
     46          1           0       -3.301835    1.505455    0.320019
     47          6           0       -5.712113   -1.328464   -0.659540
     48          1           0       -3.978466   -2.377862   -1.330217
     49          6           0       -6.205516   -0.163103   -0.091705
     50          1           0       -5.705342    1.752784    0.718472
     51          1           0       -6.387232   -2.132501   -0.915049
     52          1           0       -7.264026   -0.055889    0.094375
 ---------------------------------------------------------------------
 Rotational constants (GHZ):           0.2511600           0.1406772           0.1071723
 General basis read from cards:  (5D, 7F)
 ======================================================================================================
                                       Pseudopotential Parameters
 ======================================================================================================
  Center     Atomic      Valence      Angular      Power
  Number     Number     Electrons     Momentum     of R      Exponent        Coefficient   SO-Coeffient
 ======================================================================================================
    1         27           17
                                      D and up 
                                                     1      434.1076104      -10.00000000    0.00000000
                                                     2       78.8402758      -66.72402760    0.00000000
                                                     2       19.6037749      -11.71922430    0.00000000
                                      S - D
                                                     0      151.2307582        3.00000000    0.00000000
                                                     1      169.6790026       20.15531100    0.00000000
                                                     2       64.9909423      413.37622440    0.00000000
                                                     2       12.5076287      133.87277050    0.00000000
                                      P - D
                                                     0       92.7319924        5.00000000    0.00000000
                                                     1      121.1910183        6.18923530    0.00000000
                                                     2       48.6265909      326.32159190    0.00000000
                                                     2       11.9966971       73.87889700    0.00000000
    2          7
                                   No pseudopotential on this center.
    3          8
                                   No pseudopotential on this center.
    4          6
                                   No pseudopotential on this center.
    5          6
                                   No pseudopotential on this center.
    6          1
                                   No pseudopotential on this center.
    7          1
                                   No pseudopotential on this center.
    8          1
                                   No pseudopotential on this center.
    9          7
                                   No pseudopotential on this center.
   10          8
                                   No pseudopotential on this center.
   11          6
                                   No pseudopotential on this center.
   12          6
                                   No pseudopotential on this center.
   13          1
                                   No pseudopotential on this center.
   14          1
                                   No pseudopotential on this center.
   15          1
                                   No pseudopotential on this center.
   16          7
                                   No pseudopotential on this center.
   17          8
                                   No pseudopotential on this center.
   18          6
                                   No pseudopotential on this center.
   19          6
                                   No pseudopotential on this center.
   20          1
                                   No pseudopotential on this center.
   21          1
                                   No pseudopotential on this center.
   22          1
                                   No pseudopotential on this center.
   23          7
                                   No pseudopotential on this center.
   24          8
                                   No pseudopotential on this center.
   25          6
                                   No pseudopotential on this center.
   26          6
                                   No pseudopotential on this center.
   27          1
                                   No pseudopotential on this center.
   28          1
                                   No pseudopotential on this center.
   29          1
                                   No pseudopotential on this center.
   30          1
                                   No pseudopotential on this center.
   31          1
                                   No pseudopotential on this center.
   32          6
                                   No pseudopotential on this center.
   33          1
                                   No pseudopotential on this center.
   34          1
                                   No pseudopotential on this center.
   35          6
                                   No pseudopotential on this center.
   36          6
                                   No pseudopotential on this center.
   37          1
                                   No pseudopotential on this center.
   38          6
                                   No pseudopotential on this center.
   39          1
                                   No pseudopotential on this center.
   40          1
                                   No pseudopotential on this center.
   41          1
                                   No pseudopotential on this center.
   42          6
                                   No pseudopotential on this center.
   43          6
                                   No pseudopotential on this center.
   44          6
                                   No pseudopotential on this center.
   45          6
                                   No pseudopotential on this center.
   46          1
                                   No pseudopotential on this center.
   47          6
                                   No pseudopotential on this center.
   48          1
                                   No pseudopotential on this center.
   49          6
                                   No pseudopotential on this center.
   50          1
                                   No pseudopotential on this center.
   51          1
                                   No pseudopotential on this center.
   52          1
                                   No pseudopotential on this center.
 ======================================================================================================
 There are   464 symmetry adapted cartesian basis functions of A   symmetry.
 There are   436 symmetry adapted basis functions of A   symmetry.
   436 basis functions,   880 primitive gaussians,   464 cartesian basis functions
   105 alpha electrons      105 beta electrons
       nuclear repulsion energy      2990.9259446138 Hartrees.
 NAtoms=   52 NActive=   52 NUniq=   52 SFac= 1.00D+00 NAtFMM=   60 NAOKFM=F Big=F
 Integral buffers will be    131072 words long.
 Raffenetti 2 integral format.
 Two-electron integral symmetry is turned on.
 Nuclear repulsion after empirical dispersion term =     2990.8024651739 Hartrees.
 ------------------------------------------------------------------------------
 Polarizable Continuum Model (PCM)
 =================================
 Model                : PCM.
 Atomic radii         : SMD-Coulomb.
 Polarization charges : Total charges.
 Charge compensation  : None.
 Solution method      : On-the-fly selection.
 Cavity type          : VdW (van der Waals Surface) (Alpha=1.000).
 Cavity algorithm     : GePol (No added spheres)
                        Default sphere list used, NSphG=   52.
                        Lebedev-Laikov grids with approx.  5.0 points / Ang**2.
                        Smoothing algorithm: York/Karplus (Gamma=1.0000).
                        Polarization charges: spherical gaussians, with
                                              point-specific exponents (IZeta= 3).
                        Self-potential: point-specific (ISelfS= 7).
                        Self-field    : sphere-specific E.n sum rule (ISelfD= 2).
 Solvent              : Acetone, Eps=  20.493000 Eps(inf)=   1.846337
 ------------------------------------------------------------------------------
 ------------------------------------------------------------------------------
 Atomic radii for non-electrostatic terms: SMD-CDS.
 ------------------------------------------------------------------------------
 Nuclear repulsion after PCM non-electrostatic terms =     2990.7959166121 Hartrees.
 One-electron integrals computed using PRISM.
   1 Symmetry operations used in ECPInt.
 ECPInt:  NShTT=   13203 NPrTT=   81964 LenC2=   11306 LenP2D=   39167.
 LDataN:  DoStor=T MaxTD1= 4 Len=   56
 NBasis=   436 RedAO= T EigKep=  4.37D-04  NBF=   436
 NBsUse=   436 1.00D-06 EigRej= -1.00D+00 NBFU=   436
 ExpMin= 2.30D-02 ExpMax= 5.48D+03 ExpMxC= 8.25D+02 IAcc=3 IRadAn=         5 AccDes= 0.00D+00
 Harris functional with IExCor=  402 and IRadAn=       5 diagonalized for initial guess.
 HarFok:  IExCor=  402 AccDes= 0.00D+00 IRadAn=         5 IDoV= 1 UseB2=F ITyADJ=14
 ICtDFT=  3500011 ScaDFX=  1.000000  1.000000  1.000000  1.000000
 FoFCou: FMM=F IPFlag=           0 FMFlag=      100000 FMFlg1=           0
         NFxFlg=           0 DoJE=T BraDBF=F KetDBF=T FulRan=T
         wScrn=  0.000000 ICntrl=       500 IOpCl=  0 I1Cent=   200000004 NGrid=           0
         NMat0=    1 NMatS0=      1 NMatT0=    0 NMatD0=    1 NMtDS0=    0 NMtDT0=    0
 Petite list used in FoFCou.
 Requested convergence on RMS density matrix=1.00D-08 within 128 cycles.
 Requested convergence on MAX density matrix=1.00D-06.
 Requested convergence on             energy=1.00D-06.
 No special actions if energy rises.
 Inv3:  Mode=1 IEnd=    40892592.
 Iteration    1 A*A^-1 deviation from unit magnitude is 3.55D-15 for    904.
 Iteration    1 A*A^-1 deviation from orthogonality  is 2.22D-15 for   2747   1152.
 Iteration    1 A^-1*A deviation from unit magnitude is 3.11D-15 for    205.
 Iteration    1 A^-1*A deviation from orthogonality  is 2.05D-14 for   1702   1633.
 EnCoef did     5 forward-backward iterations
 Restarting incremental Fock formation.
 Error on total polarization charges =  0.04620
 SCF Done:  E(RB3LYP) =  -1365.93161553     A.U. after   21 cycles
            NFock= 21  Conv=0.36D-08     -V/T= 2.0505
 SMD-CDS (non-electrostatic) energy       (kcal/mol) =      -4.11
 (included in total energy above)

 **********************************************************************

            Population analysis using the SCF Density.

 **********************************************************************

 Orbital symmetries:
       Occupied  (A) (A) (A) (A) (A) (A) (A) (A) (A) (A) (A) (A)
                 (A) (A) (A) (A) (A) (A) (A) (A) (A) (A) (A) (A)
                 (A) (A) (A) (A) (A) (A) (A) (A) (A) (A) (A) (A)
                 (A) (A) (A) (A) (A) (A) (A) (A) (A) (A) (A) (A)
                 (A) (A) (A) (A) (A) (A) (A) (A) (A) (A) (A) (A)
                 (A) (A) (A) (A) (A) (A) (A) (A) (A) (A) (A) (A)
                 (A) (A) (A) (A) (A) (A) (A) (A) (A) (A) (A) (A)
                 (A) (A) (A) (A) (A) (A) (A) (A) (A) (A) (A) (A)
                 (A) (A) (A) (A) (A) (A) (A) (A) (A)
       Virtual   (A) (A) (A) (A) (A) (A) (A) (A) (A) (A) (A) (A)
                 (A) (A) (A) (A) (A) (A) (A) (A) (A) (A) (A) (A)
                 (A) (A) (A) (A) (A) (A) (A) (A) (A) (A) (A) (A)
                 (A) (A) (A) (A) (A) (A) (A) (A) (A) (A) (A) (A)
                 (A) (A) (A) (A) (A) (A) (A) (A) (A) (A) (A) (A)
                 (A) (A) (A) (A) (A) (A) (A) (A) (A) (A) (A) (A)
                 (A) (A) (A) (A) (A) (A) (A) (A) (A) (A) (A) (A)
                 (A) (A) (A) (A) (A) (A) (A) (A) (A) (A) (A) (A)
                 (A) (A) (A) (A) (A) (A) (A) (A) (A) (A) (A) (A)
                 (A) (A) (A) (A) (A) (A) (A) (A) (A) (A) (A) (A)
                 (A) (A) (A) (A) (A) (A) (A) (A) (A) (A) (A) (A)
                 (A) (A) (A) (A) (A) (A) (A) (A) (A) (A) (A) (A)
                 (A) (A) (A) (A) (A) (A) (A) (A) (A) (A) (A) (A)
                 (A) (A) (A) (A) (A) (A) (A) (A) (A) (A) (A) (A)
                 (A) (A) (A) (A) (A) (A) (A) (A) (A) (A) (A) (A)
                 (A) (A) (A) (A) (A) (A) (A) (A) (A) (A) (A) (A)
                 (A) (A) (A) (A) (A) (A) (A) (A) (A) (A) (A) (A)
                 (A) (A) (A) (A) (A) (A) (A) (A) (A) (A) (A) (A)
                 (A) (A) (A) (A) (A) (A) (A) (A) (A) (A) (A) (A)
                 (A) (A) (A) (A) (A) (A) (A) (A) (A) (A) (A) (A)
                 (A) (A) (A) (A) (A) (A) (A) (A) (A) (A) (A) (A)
                 (A) (A) (A) (A) (A) (A) (A) (A) (A) (A) (A) (A)
                 (A) (A) (A) (A) (A) (A) (A) (A) (A) (A) (A) (A)
                 (A) (A) (A) (A) (A) (A) (A) (A) (A) (A) (A) (A)
                 (A) (A) (A) (A) (A) (A) (A) (A) (A) (A) (A) (A)
                 (A) (A) (A) (A) (A) (A) (A) (A) (A) (A) (A) (A)
                 (A) (A) (A) (A) (A) (A) (A) (A) (A) (A) (A) (A)
                 (A) (A) (A) (A) (A) (A) (A)
 The electronic state is 1-A.
 Alpha  occ. eigenvalues --  -19.16587 -19.16469 -19.12704 -19.12527 -14.40961
 Alpha  occ. eigenvalues --  -14.40896 -14.40475 -14.40395 -10.23646 -10.23546
 Alpha  occ. eigenvalues --  -10.21301 -10.21279 -10.18535 -10.18405 -10.17563
 Alpha  occ. eigenvalues --  -10.17529 -10.17496 -10.17469 -10.17466 -10.17429
 Alpha  occ. eigenvalues --  -10.17398 -10.17379 -10.17149 -10.16809 -10.16770
 Alpha  occ. eigenvalues --  -10.15778  -3.74348  -2.44354  -2.43603  -2.42504
 Alpha  occ. eigenvalues --   -1.08996  -1.08446  -1.06866  -1.06316  -0.90546
 Alpha  occ. eigenvalues --   -0.89355  -0.85806  -0.81852  -0.80950  -0.80534
 Alpha  occ. eigenvalues --   -0.75288  -0.74633  -0.74214  -0.74175  -0.70621
 Alpha  occ. eigenvalues --   -0.70493  -0.68466  -0.66369  -0.62274  -0.60278
 Alpha  occ. eigenvalues --   -0.60073  -0.58767  -0.54838  -0.53504  -0.52974
 Alpha  occ. eigenvalues --   -0.52045  -0.51230  -0.50819  -0.49524  -0.48978
 Alpha  occ. eigenvalues --   -0.47579  -0.46877  -0.46709  -0.46106  -0.45315
 Alpha  occ. eigenvalues --   -0.44435  -0.43643  -0.42696  -0.42396  -0.42203
 Alpha  occ. eigenvalues --   -0.42075  -0.41928  -0.41469  -0.40690  -0.40535
 Alpha  occ. eigenvalues --   -0.39868  -0.39650  -0.39152  -0.38732  -0.38152
 Alpha  occ. eigenvalues --   -0.38087  -0.38010  -0.37582  -0.37230  -0.36790
 Alpha  occ. eigenvalues --   -0.36408  -0.34925  -0.34324  -0.34219  -0.33438
 Alpha  occ. eigenvalues --   -0.33104  -0.30859  -0.30362  -0.28247  -0.27882
 Alpha  occ. eigenvalues --   -0.27671  -0.26520  -0.26181  -0.25064  -0.24967
 Alpha  occ. eigenvalues --   -0.24918  -0.22253  -0.20233  -0.19728  -0.19460
 Alpha virt. eigenvalues --   -0.09184  -0.03704  -0.03369  -0.00333   0.00256
 Alpha virt. eigenvalues --    0.00530   0.02619   0.02783   0.03233   0.06282
 Alpha virt. eigenvalues --    0.06726   0.06842   0.07729   0.11211   0.12209
 Alpha virt. eigenvalues --    0.13094   0.13657   0.14092   0.14704   0.14919
 Alpha virt. eigenvalues --    0.15273   0.15829   0.16204   0.16832   0.17079
 Alpha virt. eigenvalues --    0.17660   0.17692   0.17956   0.18134   0.18960
 Alpha virt. eigenvalues --    0.19188   0.19396   0.19996   0.20451   0.21909
 Alpha virt. eigenvalues --    0.22236   0.23189   0.23229   0.23788   0.24509
 Alpha virt. eigenvalues --    0.24723   0.25101   0.25502   0.25750   0.26845
 Alpha virt. eigenvalues --    0.27224   0.28210   0.28745   0.29496   0.30559
 Alpha virt. eigenvalues --    0.31332   0.32115   0.32209   0.33836   0.34516
 Alpha virt. eigenvalues --    0.35661   0.36142   0.36643   0.39939   0.41290
 Alpha virt. eigenvalues --    0.42515   0.42723   0.43144   0.44831   0.46865
 Alpha virt. eigenvalues --    0.48216   0.50349   0.51007   0.52225   0.52965
 Alpha virt. eigenvalues --    0.53245   0.54546   0.55097   0.55671   0.56313
 Alpha virt. eigenvalues --    0.56363   0.57304   0.57725   0.58517   0.58832
 Alpha virt. eigenvalues --    0.58953   0.59564   0.59887   0.60253   0.60662
 Alpha virt. eigenvalues --    0.61409   0.62501   0.62803   0.62936   0.63508
 Alpha virt. eigenvalues --    0.64184   0.64401   0.65582   0.65994   0.66616
 Alpha virt. eigenvalues --    0.67820   0.69074   0.69143   0.69849   0.70610
 Alpha virt. eigenvalues --    0.71277   0.72022   0.72785   0.73378   0.74928
 Alpha virt. eigenvalues --    0.75513   0.75758   0.76285   0.77168   0.78317
 Alpha virt. eigenvalues --    0.79099   0.79769   0.81701   0.82509   0.83253
 Alpha virt. eigenvalues --    0.83641   0.84029   0.84796   0.85026   0.85180
 Alpha virt. eigenvalues --    0.85692   0.86005   0.87069   0.87218   0.87649
 Alpha virt. eigenvalues --    0.88769   0.89332   0.89867   0.90232   0.90565
 Alpha virt. eigenvalues --    0.90986   0.91194   0.91800   0.92623   0.93536
 Alpha virt. eigenvalues --    0.93703   0.94324   0.94619   0.95076   0.95184
 Alpha virt. eigenvalues --    0.95451   0.95845   0.96781   0.98057   0.99050
 Alpha virt. eigenvalues --    0.99920   1.00257   1.01242   1.01591   1.02094
 Alpha virt. eigenvalues --    1.02639   1.03625   1.04316   1.04545   1.05464
 Alpha virt. eigenvalues --    1.06309   1.07760   1.09695   1.09873   1.11128
 Alpha virt. eigenvalues --    1.11248   1.13224   1.14303   1.15067   1.15727
 Alpha virt. eigenvalues --    1.15959   1.20071   1.20300   1.20721   1.22046
 Alpha virt. eigenvalues --    1.22412   1.23108   1.24019   1.24993   1.26295
 Alpha virt. eigenvalues --    1.27712   1.28783   1.29608   1.30456   1.30660
 Alpha virt. eigenvalues --    1.33416   1.33938   1.34921   1.35347   1.36681
 Alpha virt. eigenvalues --    1.36784   1.38286   1.38644   1.39149   1.39524
 Alpha virt. eigenvalues --    1.39929   1.40749   1.42246   1.43805   1.44641
 Alpha virt. eigenvalues --    1.45170   1.45588   1.45820   1.46744   1.50009
 Alpha virt. eigenvalues --    1.50442   1.50896   1.52032   1.52525   1.53441
 Alpha virt. eigenvalues --    1.55407   1.59395   1.60802   1.61688   1.62787
 Alpha virt. eigenvalues --    1.65085   1.68462   1.71094   1.74260   1.74548
 Alpha virt. eigenvalues --    1.75247   1.76506   1.77044   1.77966   1.78108
 Alpha virt. eigenvalues --    1.79211   1.79869   1.80450   1.80906   1.81642
 Alpha virt. eigenvalues --    1.82105   1.82756   1.83302   1.83803   1.85582
 Alpha virt. eigenvalues --    1.87303   1.88327   1.89130   1.89979   1.90423
 Alpha virt. eigenvalues --    1.91628   1.93283   1.93392   1.93806   1.94374
 Alpha virt. eigenvalues --    1.95632   1.96537   1.98433   1.98815   1.99197
 Alpha virt. eigenvalues --    1.99698   2.00425   2.01567   2.03119   2.05444
 Alpha virt. eigenvalues --    2.06818   2.09360   2.10185   2.12177   2.12706
 Alpha virt. eigenvalues --    2.13020   2.13388   2.14587   2.14815   2.15995
 Alpha virt. eigenvalues --    2.16451   2.17520   2.18837   2.19677   2.20513
 Alpha virt. eigenvalues --    2.22563   2.24009   2.24710   2.26978   2.28241
 Alpha virt. eigenvalues --    2.28549   2.29890   2.30120   2.30701   2.32229
 Alpha virt. eigenvalues --    2.32613   2.33018   2.33221   2.33751   2.33827
 Alpha virt. eigenvalues --    2.34589   2.35176   2.36481   2.37120   2.38538
 Alpha virt. eigenvalues --    2.41736   2.44129   2.46657   2.48268   2.51069
 Alpha virt. eigenvalues --    2.51762   2.53046   2.53414   2.54531   2.54855
 Alpha virt. eigenvalues --    2.56388   2.56720   2.57942   2.58748   2.60609
 Alpha virt. eigenvalues --    2.64280   2.64417   2.65087   2.65973   2.66365
 Alpha virt. eigenvalues --    2.67608   2.68427   2.70371   2.74312   2.76249
 Alpha virt. eigenvalues --    2.76969   2.77473   2.78467   2.81977   2.85110
 Alpha virt. eigenvalues --    2.86627   2.91100   2.91550   2.93471   2.96465
 Alpha virt. eigenvalues --    3.02852   3.04724   3.06516   3.08553   3.10335
 Alpha virt. eigenvalues --    3.11270   3.20575   3.29459   3.32335   3.46529
 Alpha virt. eigenvalues --   21.74201
          Condensed to atoms (all electrons):
 Mulliken charges:
               1
     1  Co   0.329394
     2  N   -0.182590
     3  O   -0.569617
     4  C    0.326148
     5  C   -0.548110
     6  H    0.201963
     7  H    0.201621
     8  H    0.200476
     9  N   -0.071506
    10  O   -0.557122
    11  C    0.267413
    12  C   -0.547732
    13  H    0.187442
    14  H    0.188101
    15  H    0.190338
    16  N   -0.163066
    17  O   -0.573560
    18  C    0.324213
    19  C   -0.546678
    20  H    0.198658
    21  H    0.200061
    22  H    0.204356
    23  N   -0.074423
    24  O   -0.553318
    25  C    0.265500
    26  C   -0.547572
    27  H    0.190157
    28  H    0.188732
    29  H    0.185828
    30  H    0.474313
    31  H    0.469864
    32  C   -0.405122
    33  H    0.188225
    34  H    0.189481
    35  C    0.235598
    36  C   -0.245345
    37  H    0.153758
    38  C   -0.554004
    39  H    0.188358
    40  H    0.169049
    41  H    0.168531
    42  C    0.141350
    43  C   -0.197487
    44  C   -0.201214
    45  C   -0.158149
    46  H    0.160885
    47  C   -0.154412
    48  H    0.152308
    49  C   -0.150721
    50  H    0.153041
    51  H    0.153557
    52  H    0.153031
 Sum of Mulliken charges =  -0.00000
 Mulliken charges with hydrogens summed into heavy atoms:
               1
     1  Co   0.329394
     2  N   -0.182590
     3  O   -0.095304
     4  C    0.326148
     5  C    0.055950
     9  N   -0.071506
    10  O   -0.557122
    11  C    0.267413
    12  C    0.018148
    16  N   -0.163066
    17  O   -0.103696
    18  C    0.324213
    19  C    0.056397
    23  N   -0.074423
    24  O   -0.553318
    25  C    0.265500
    26  C    0.017144
    32  C   -0.027417
    35  C    0.235598
    36  C   -0.091587
    38  C   -0.028065
    42  C    0.141350
    43  C   -0.036603
    44  C   -0.048905
    45  C   -0.005108
    47  C   -0.000855
    49  C    0.002310
 Electronic spatial extent (au):  <R**2>=          10423.4446
 Charge=             -0.0000 electrons
 Dipole moment (field-independent basis, Debye):
    X=             -0.0799    Y=              0.2839    Z=              0.8942  Tot=              0.9416
 Quadrupole moment (field-independent basis, Debye-Ang):
   XX=           -168.0790   YY=           -129.4436   ZZ=           -174.0940
   XY=             -6.9578   XZ=             12.2875   YZ=              7.1041
 Traceless Quadrupole moment (field-independent basis, Debye-Ang):
   XX=            -10.8734   YY=             27.7619   ZZ=            -16.8885
   XY=             -6.9578   XZ=             12.2875   YZ=              7.1041
 Octapole moment (field-independent basis, Debye-Ang**2):
  XXX=            -44.3831  YYY=             -0.7755  ZZZ=             11.9025  XYY=             63.5538
  XXY=            -29.2651  XXZ=             45.5588  XZZ=             33.4109  YZZ=              5.2444
  YYZ=             20.4257  XYZ=             -8.8091
 Hexadecapole moment (field-independent basis, Debye-Ang**3):
 XXXX=          -7692.1181 YYYY=          -3856.9357 ZZZZ=          -1327.3016 XXXY=            -28.8800
 XXXZ=             25.8525 YYYX=            -63.9384 YYYZ=             62.7323 ZZZX=            -26.8470
 ZZZY=              7.7123 XXYY=          -1917.7010 XXZZ=          -1668.7879 YYZZ=           -924.2976
 XXYZ=             79.6085 YYXZ=             58.3738 ZZXY=             -7.2601
 N-N= 2.990795916612D+03 E-N=-9.173220293985D+03  KE= 1.300219938488D+03
 Unable to Open any file for archive entry.
 1\1\GINC-N204\SP\RB3LYP\GenECP\C18H25Co1N4O4\CJD\02-Mar-2023\0\\# B3LY
 P/genecp em=GD3BJ int=fine scrf=(smd,solvent=acetone)\\Template\\0,1\C
 o,0,-1.1642246251,-0.6084389953,-0.4202716771\N,0,-1.1737799105,1.2567
 476153,-0.2164042008\O,0,-0.2676524017,2.1334481507,-0.7374261297\C,0,
 -2.171116702,1.7247227954,0.4643982463\C,0,-2.4167238795,3.1773423022,
 0.6970604085\H,0,-2.3942823928,3.393606453,1.7635190049\H,0,-3.3985388
 524,3.455998777,0.3190963499\H,0,-1.6542452206,3.7638588055,0.19101158
 15\N,0,-2.6554156238,-0.5083265682,0.7314530674\O,0,-3.3125224485,-1.5
 397295018,1.1609516985\C,0,-3.0344013633,0.7072042147,1.0115456503\C,0
 ,-4.2339085382,1.0272833731,1.8448495426\H,0,-4.9431917787,1.635247639
 7,1.285919556\H,0,-3.9433151085,1.5722379892,2.7411166155\H,0,-4.71255
 09326,0.093854314,2.1340125978\N,0,-1.3560471218,-2.4291413263,-0.8523
 067376\O,0,-2.1824028006,-3.3244184878,-0.2385250411\C,0,-0.6315707119
 ,-2.8294558893,-1.8473036119\C,0,-0.6518701011,-4.2197734512,-2.385114
 6716\H,0,-0.7688558171,-4.2070697591,-3.4661248701\H,0,-1.4685561008,-
 4.7747419246,-1.9308076035\H,0,0.2874032994,-4.7182945715,-2.150593004
 9\N,0,0.1427739084,-0.6595836878,-1.7797205089\O,0,0.8490802898,0.3594
 791006,-2.1524770643\C,0,0.2312703696,-1.8089038977,-2.3903878255\C,0,
 1.1521278506,-2.0592035561,-3.5422029077\H,0,1.754349915,-1.1668187729
 ,-3.7011564363\H,0,0.5889796088,-2.2715023197,-4.4500149454\H,0,1.8045
 682244,-2.9049506698,-3.3354268462\H,0,0.3281880645,1.5455107372,-1.34
 79134347\H,0,-2.7270405973,-2.7485750717,0.4276027255\C,0,0.1339914068
 ,-1.0701812348,1.0696635056\H,0,-0.5216217235,-1.3855404463,1.87993364
 1\H,0,0.69089908,-1.9110331265,0.6576339894\C,0,0.9890942632,0.0473554
 702,1.4176066652\C,0,2.1993879638,0.1659857202,0.8110574376\H,0,2.4782
 793945,-0.614687132,0.1141199067\C,0,0.5296056951,0.9728182021,2.50891
 99875\H,0,0.0343755961,1.8489980405,2.0981209778\H,0,-0.1793804473,0.4
 628358683,3.1562034753\H,0,1.3770544866,1.3094222745,3.1008247755\C,0,
 3.2218487062,1.1736330837,1.0064039189\C,0,2.9400916362,2.5150118335,1
 .2801535464\C,0,4.5641966426,0.7948178213,0.8764842108\C,0,3.962701758
 1,3.430175428,1.4469514276\H,0,1.9172568444,2.8497953434,1.3087004671\
 C,0,5.5825695015,1.7076602077,1.0615443763\H,0,4.7999756233,-0.2342686
 979,0.6455697683\C,0,5.2862577942,3.0307946492,1.3538870409\H,0,3.7262
 759362,4.4650673524,1.6480015955\H,0,6.6120457654,1.3920497222,0.97146
 85858\H,0,6.0823634707,3.7471702515,1.4938356707\\Version=ES64L-G16Rev
 C.01\State=1-A\HF=-1365.9316155\RMSD=3.580e-09\Dipole=-0.0839084,0.289
 7794,-0.2149896\Quadrupole=-1.5423736,4.0433715,-2.5009979,-13.9751537
 ,1.0249405,15.9305233\PG=C01 [X(C18H25Co1N4O4)]\\@
 The archive entry for this job was punched.


 IT IS A CAPITAL MISTAKE TO THEORIZE BEFORE ONE HAS
 DATA.  INSENSIBLY ONE BEGINS TO TWIST FACTS TO SUIT
 THEORIES RATHER THAN THEORIES TO SUIT FACTS.

                                         -- SHERLOCK HOLMES
 Job cpu time:       0 days  0 hours 20 minutes 50.4 seconds.
 Elapsed time:       0 days  0 hours  1 minutes 20.3 seconds.
 File lengths (MBytes):  RWF=    331 Int=      0 D2E=      0 Chk=     14 Scr=      1
 Normal termination of Gaussian 16 at Thu Mar  2 09:01:59 2023.
