 Entering Gaussian System, Link 0=g16
 Initial command:
 /opt/local/g16/l1.exe "/data/tmp/cjd/Gau-3877.inp" -scrdir="/data/tmp/cjd/"
 Entering Link 1 = /opt/local/g16/l1.exe PID=      3878.
  
 Copyright (c) 1988-2019, Gaussian, Inc.  All Rights Reserved.
  
 This is part of the Gaussian(R) 16 program.  It is based on
 the Gaussian(R) 09 system (copyright 2009, Gaussian, Inc.),
 the Gaussian(R) 03 system (copyright 2003, Gaussian, Inc.),
 the Gaussian(R) 98 system (copyright 1998, Gaussian, Inc.),
 the Gaussian(R) 94 system (copyright 1995, Gaussian, Inc.),
 the Gaussian 92(TM) system (copyright 1992, Gaussian, Inc.),
 the Gaussian 90(TM) system (copyright 1990, Gaussian, Inc.),
 the Gaussian 88(TM) system (copyright 1988, Gaussian, Inc.),
 the Gaussian 86(TM) system (copyright 1986, Carnegie Mellon
 University), and the Gaussian 82(TM) system (copyright 1983,
 Carnegie Mellon University). Gaussian is a federally registered
 trademark of Gaussian, Inc.
  
 This software contains proprietary and confidential information,
 including trade secrets, belonging to Gaussian, Inc.
  
 This software is provided under written license and may be
 used, copied, transmitted, or stored only in accord with that
 written license.
  
 The following legend is applicable only to US Government
 contracts under FAR:
  
                    RESTRICTED RIGHTS LEGEND
  
 Use, reproduction and disclosure by the US Government is
 subject to restrictions as set forth in subparagraphs (a)
 and (c) of the Commercial Computer Software - Restricted
 Rights clause in FAR 52.227-19.
  
 Gaussian, Inc.
 340 Quinnipiac St., Bldg. 40, Wallingford CT 06492
  
  
 ---------------------------------------------------------------
 Warning -- This program may not be used in any manner that
 competes with the business of Gaussian, Inc. or will provide
 assistance to any competitor of Gaussian, Inc.  The licensee
 of this program is prohibited from giving any competitor of
 Gaussian, Inc. access to this program.  By using this program,
 the user acknowledges that Gaussian, Inc. is engaged in the
 business of creating and licensing software in the field of
 computational chemistry and represents and warrants to the
 licensee that it is not a competitor of Gaussian, Inc. and that
 it will not use this program in any manner prohibited above.
 ---------------------------------------------------------------
  

 Cite this work as:
 Gaussian 16, Revision C.01,
 M. J. Frisch, G. W. Trucks, H. B. Schlegel, G. E. Scuseria, 
 M. A. Robb, J. R. Cheeseman, G. Scalmani, V. Barone, 
 G. A. Petersson, H. Nakatsuji, X. Li, M. Caricato, A. V. Marenich, 
 J. Bloino, B. G. Janesko, R. Gomperts, B. Mennucci, H. P. Hratchian, 
 J. V. Ortiz, A. F. Izmaylov, J. L. Sonnenberg, D. Williams-Young, 
 F. Ding, F. Lipparini, F. Egidi, J. Goings, B. Peng, A. Petrone, 
 T. Henderson, D. Ranasinghe, V. G. Zakrzewski, J. Gao, N. Rega, 
 G. Zheng, W. Liang, M. Hada, M. Ehara, K. Toyota, R. Fukuda, 
 J. Hasegawa, M. Ishida, T. Nakajima, Y. Honda, O. Kitao, H. Nakai, 
 T. Vreven, K. Throssell, J. A. Montgomery, Jr., J. E. Peralta, 
 F. Ogliaro, M. J. Bearpark, J. J. Heyd, E. N. Brothers, K. N. Kudin, 
 V. N. Staroverov, T. A. Keith, R. Kobayashi, J. Normand, 
 K. Raghavachari, A. P. Rendell, J. C. Burant, S. S. Iyengar, 
 J. Tomasi, M. Cossi, J. M. Millam, M. Klene, C. Adamo, R. Cammi, 
 J. W. Ochterski, R. L. Martin, K. Morokuma, O. Farkas, 
 J. B. Foresman, and D. J. Fox, Gaussian, Inc., Wallingford CT, 2019.
 
 ******************************************
 Gaussian 16:  ES64L-G16RevC.01  3-Jul-2019
                 2-Mar-2023 
 ******************************************
 %nproc=16
 Will use up to   16 processors via shared memory.
 %mem=60GB
 -----------------------------------------------------------
 # B3LYP/genecp em=GD3BJ int=fine scrf=(smd,solvent=acetone)
 -----------------------------------------------------------
 1/38=1,172=1/1;
 2/12=2,17=6,18=5,40=1/2;
 3/5=7,11=2,16=1,17=8,25=1,30=1,70=32201,72=19,74=-5,75=-4,124=41/1,2,3;
 4//1;
 5/5=2,38=5,53=19/2;
 6/7=2,8=2,9=2,10=2,28=1/1;
 99/5=1,9=1/99;
 --------
 Template
 --------
 Symbolic Z-matrix:
 Charge =  0 Multiplicity = 1
 Co                   -1.01329  -0.60583  -0.72448 
 N                    -0.73417   1.2333   -0.46982 
 O                    -0.21546   2.10645  -1.38073 
 C                    -1.1232    1.68642   0.67774 
 C                    -1.05383   3.12117   1.07397 
 H                    -0.24715   3.26245   1.79189 
 H                    -1.98499   3.43347   1.53998 
 H                    -0.85443   3.73235   0.19739 
 N                    -1.55212  -0.53977   1.06999 
 O                    -1.9308   -1.57584   1.75162 
 C                    -1.60448   0.66246   1.57131 
 C                    -2.08411   0.95751   2.95609 
 H                    -2.28642   0.01478   3.46021 
 H                    -2.99898   1.54826   2.93213 
 H                    -1.3293    1.51116   3.51023 
 N                    -1.56118  -2.37643  -1.049 
 O                    -1.91429  -3.29772  -0.10555 
 C                    -1.61197  -2.71401  -2.29747 
 C                    -2.05705  -4.05217  -2.77945 
 H                    -1.20516  -4.59897  -3.18063 
 H                    -2.7947   -3.94463  -3.57109 
 H                    -2.4806   -4.61617  -1.95241 
 N                    -0.77258  -0.59262  -2.6032 
 O                    -0.32866   0.42554  -3.27277 
 C                    -1.16743  -1.68144  -3.20157 
 C                    -1.14281  -1.86404  -4.68549 
 H                    -2.1501   -2.00373  -5.07527 
 H                    -0.54454  -2.73204  -4.95469 
 H                    -0.70907  -0.97332  -5.13556 
 H                    -0.16247   1.5548   -2.25613 
 H                    -1.94915  -2.75316   0.77437 
 C                     0.91017  -1.15289  -0.34464 
 H                     0.82845  -2.22509  -0.16902 
 H                     1.39746  -0.929    -1.29344 
 C                     1.53353  -0.46581   0.77305 
 C                     2.18842   0.70338   0.5536 
 H                     2.13327   1.11297  -0.44748 
 C                     1.42914  -1.11935   2.12055 
 H                     2.23239  -1.84499   2.24468 
 H                     1.49212  -0.38876   2.92195 
 H                     0.48904  -1.65655   2.20699 
 C                     2.90482   1.54583   1.49071 
 C                     2.89676   2.92894   1.26611 
 C                     3.63064   1.06203   2.58305 
 C                     3.53604   3.79489   2.12983 
 H                     2.36099   3.31587   0.41134 
 C                     4.28491   1.93206   3.43617 
 H                     3.72117   0.00016   2.73997 
 C                     4.22962   3.30014   3.22471 
 H                     3.50269   4.85933   1.94746 
 H                     4.84611   1.5389    4.27159 
 H                     4.73537   3.97592   3.89843 
 
 Stoichiometry    C18H25CoN4O4
 Framework group  C1[X(C18H25CoN4O4)]
 Deg. of freedom   150
 Full point group                 C1      NOp   1
 Largest Abelian subgroup         C1      NOp   1
 Largest concise Abelian subgroup C1      NOp   1
                         Standard orientation:                         
 ---------------------------------------------------------------------
 Center     Atomic      Atomic             Coordinates (Angstroms)
 Number     Number       Type             X           Y           Z
 ---------------------------------------------------------------------
      1         27           0        1.381279    0.123231    0.302854
      2          7           0        0.015385   -0.462732    1.450096
      3          8           0       -0.235348   -1.752744    1.816417
      4          6           0       -0.710261    0.481745    1.955015
      5          6           0       -1.810225    0.254373    2.934145
      6          1           0       -2.771502    0.387825    2.439938
      7          1           0       -1.744938    0.966325    3.753055
      8          1           0       -1.751615   -0.760481    3.319299
      9          7           0        0.577057    1.795170    0.572452
     10          8           0        0.979460    2.892100    0.010068
     11          6           0       -0.383467    1.793460    1.453821
     12          6           0       -1.108645    3.027698    1.884526
     13          1           0       -0.753165    3.864154    1.286367
     14          1           0       -0.920878    3.240918    2.936108
     15          1           0       -2.180443    2.908541    1.741784
     16          7           0        2.900131    0.758986   -0.607876
     17          8           0        3.066277    2.012028   -1.123456
     18          6           0        3.866159   -0.094505   -0.724320
     19          6           0        5.172405    0.211706   -1.373185
     20          1           0        5.247838   -0.326605   -2.316680
     21          1           0        5.995758   -0.102643   -0.736261
     22          1           0        5.241908    1.278603   -1.569120
     23          7           0        2.357321   -1.500040    0.298523
     24          8           0        1.921440   -2.612524    0.802950
     25          6           0        3.561297   -1.399929   -0.191273
     26          6           0        4.536085   -2.533315   -0.225712
     27          1           0        5.413596   -2.307911    0.378643
     28          1           0        4.859932   -2.729085   -1.245818
     29          1           0        4.048512   -3.420018    0.174424
     30          1           0        0.573425   -2.281977    1.443254
     31          1           0        2.248719    2.538622   -0.768052
     32          6           0        0.390665   -0.308952   -1.422004
     33          1           0        0.948547    0.252586   -2.170718
     34          1           0        0.553499   -1.383000   -1.509847
     35          6           0       -1.019694    0.038569   -1.422447
     36          6           0       -1.928810   -0.869835   -0.983857
     37          1           0       -1.537327   -1.789331   -0.566439
     38          6           0       -1.387652    1.399051   -1.939618
     39          1           0       -1.494869    1.367932   -3.023464
     40          1           0       -2.320328    1.749323   -1.506736
     41          1           0       -0.602793    2.114179   -1.710637
     42          6           0       -3.373177   -0.766996   -0.918155
     43          6           0       -4.030344   -1.434919    0.123734
     44          6           0       -4.152564   -0.072602   -1.847924
     45          6           0       -5.401276   -1.361806    0.264322
     46          1           0       -3.443335   -1.996841    0.835814
     47          6           0       -5.527937   -0.016665   -1.713568
     48          1           0       -3.686109    0.386977   -2.703258
     49          6           0       -6.157781   -0.645889   -0.652056
     50          1           0       -5.886122   -1.870310    1.085142
     51          1           0       -6.114113    0.519688   -2.445795
     52          1           0       -7.231303   -0.592402   -0.546927
 ---------------------------------------------------------------------
 Rotational constants (GHZ):           0.3246113           0.1172436           0.1115574
 General basis read from cards:  (5D, 7F)
 ======================================================================================================
                                       Pseudopotential Parameters
 ======================================================================================================
  Center     Atomic      Valence      Angular      Power
  Number     Number     Electrons     Momentum     of R      Exponent        Coefficient   SO-Coeffient
 ======================================================================================================
    1         27           17
                                      D and up 
                                                     1      434.1076104      -10.00000000    0.00000000
                                                     2       78.8402758      -66.72402760    0.00000000
                                                     2       19.6037749      -11.71922430    0.00000000
                                      S - D
                                                     0      151.2307582        3.00000000    0.00000000
                                                     1      169.6790026       20.15531100    0.00000000
                                                     2       64.9909423      413.37622440    0.00000000
                                                     2       12.5076287      133.87277050    0.00000000
                                      P - D
                                                     0       92.7319924        5.00000000    0.00000000
                                                     1      121.1910183        6.18923530    0.00000000
                                                     2       48.6265909      326.32159190    0.00000000
                                                     2       11.9966971       73.87889700    0.00000000
    2          7
                                   No pseudopotential on this center.
    3          8
                                   No pseudopotential on this center.
    4          6
                                   No pseudopotential on this center.
    5          6
                                   No pseudopotential on this center.
    6          1
                                   No pseudopotential on this center.
    7          1
                                   No pseudopotential on this center.
    8          1
                                   No pseudopotential on this center.
    9          7
                                   No pseudopotential on this center.
   10          8
                                   No pseudopotential on this center.
   11          6
                                   No pseudopotential on this center.
   12          6
                                   No pseudopotential on this center.
   13          1
                                   No pseudopotential on this center.
   14          1
                                   No pseudopotential on this center.
   15          1
                                   No pseudopotential on this center.
   16          7
                                   No pseudopotential on this center.
   17          8
                                   No pseudopotential on this center.
   18          6
                                   No pseudopotential on this center.
   19          6
                                   No pseudopotential on this center.
   20          1
                                   No pseudopotential on this center.
   21          1
                                   No pseudopotential on this center.
   22          1
                                   No pseudopotential on this center.
   23          7
                                   No pseudopotential on this center.
   24          8
                                   No pseudopotential on this center.
   25          6
                                   No pseudopotential on this center.
   26          6
                                   No pseudopotential on this center.
   27          1
                                   No pseudopotential on this center.
   28          1
                                   No pseudopotential on this center.
   29          1
                                   No pseudopotential on this center.
   30          1
                                   No pseudopotential on this center.
   31          1
                                   No pseudopotential on this center.
   32          6
                                   No pseudopotential on this center.
   33          1
                                   No pseudopotential on this center.
   34          1
                                   No pseudopotential on this center.
   35          6
                                   No pseudopotential on this center.
   36          6
                                   No pseudopotential on this center.
   37          1
                                   No pseudopotential on this center.
   38          6
                                   No pseudopotential on this center.
   39          1
                                   No pseudopotential on this center.
   40          1
                                   No pseudopotential on this center.
   41          1
                                   No pseudopotential on this center.
   42          6
                                   No pseudopotential on this center.
   43          6
                                   No pseudopotential on this center.
   44          6
                                   No pseudopotential on this center.
   45          6
                                   No pseudopotential on this center.
   46          1
                                   No pseudopotential on this center.
   47          6
                                   No pseudopotential on this center.
   48          1
                                   No pseudopotential on this center.
   49          6
                                   No pseudopotential on this center.
   50          1
                                   No pseudopotential on this center.
   51          1
                                   No pseudopotential on this center.
   52          1
                                   No pseudopotential on this center.
 ======================================================================================================
 There are   464 symmetry adapted cartesian basis functions of A   symmetry.
 There are   436 symmetry adapted basis functions of A   symmetry.
   436 basis functions,   880 primitive gaussians,   464 cartesian basis functions
   105 alpha electrons      105 beta electrons
       nuclear repulsion energy      2996.2956043188 Hartrees.
 NAtoms=   52 NActive=   52 NUniq=   52 SFac= 1.00D+00 NAtFMM=   60 NAOKFM=F Big=F
 Integral buffers will be    131072 words long.
 Raffenetti 2 integral format.
 Two-electron integral symmetry is turned on.
 Nuclear repulsion after empirical dispersion term =     2996.1708884276 Hartrees.
 ------------------------------------------------------------------------------
 Polarizable Continuum Model (PCM)
 =================================
 Model                : PCM.
 Atomic radii         : SMD-Coulomb.
 Polarization charges : Total charges.
 Charge compensation  : None.
 Solution method      : On-the-fly selection.
 Cavity type          : VdW (van der Waals Surface) (Alpha=1.000).
 Cavity algorithm     : GePol (No added spheres)
                        Default sphere list used, NSphG=   52.
                        Lebedev-Laikov grids with approx.  5.0 points / Ang**2.
                        Smoothing algorithm: York/Karplus (Gamma=1.0000).
                        Polarization charges: spherical gaussians, with
                                              point-specific exponents (IZeta= 3).
                        Self-potential: point-specific (ISelfS= 7).
                        Self-field    : sphere-specific E.n sum rule (ISelfD= 2).
 Solvent              : Acetone, Eps=  20.493000 Eps(inf)=   1.846337
 ------------------------------------------------------------------------------
 ------------------------------------------------------------------------------
 Atomic radii for non-electrostatic terms: SMD-CDS.
 ------------------------------------------------------------------------------
 Nuclear repulsion after PCM non-electrostatic terms =     2996.1642299305 Hartrees.
 One-electron integrals computed using PRISM.
   1 Symmetry operations used in ECPInt.
 ECPInt:  NShTT=   13203 NPrTT=   81964 LenC2=   11298 LenP2D=   39211.
 LDataN:  DoStor=T MaxTD1= 4 Len=   56
 NBasis=   436 RedAO= T EigKep=  4.38D-04  NBF=   436
 NBsUse=   436 1.00D-06 EigRej= -1.00D+00 NBFU=   436
 ExpMin= 2.30D-02 ExpMax= 5.48D+03 ExpMxC= 8.25D+02 IAcc=3 IRadAn=         5 AccDes= 0.00D+00
 Harris functional with IExCor=  402 and IRadAn=       5 diagonalized for initial guess.
 HarFok:  IExCor=  402 AccDes= 0.00D+00 IRadAn=         5 IDoV= 1 UseB2=F ITyADJ=14
 ICtDFT=  3500011 ScaDFX=  1.000000  1.000000  1.000000  1.000000
 FoFCou: FMM=F IPFlag=           0 FMFlag=      100000 FMFlg1=           0
         NFxFlg=           0 DoJE=T BraDBF=F KetDBF=T FulRan=T
         wScrn=  0.000000 ICntrl=       500 IOpCl=  0 I1Cent=   200000004 NGrid=           0
         NMat0=    1 NMatS0=      1 NMatT0=    0 NMatD0=    1 NMtDS0=    0 NMtDT0=    0
 Petite list used in FoFCou.
 Requested convergence on RMS density matrix=1.00D-08 within 128 cycles.
 Requested convergence on MAX density matrix=1.00D-06.
 Requested convergence on             energy=1.00D-06.
 No special actions if energy rises.
 Inv3:  Mode=1 IEnd=    40605123.
 Iteration    1 A*A^-1 deviation from unit magnitude is 3.77D-15 for   1839.
 Iteration    1 A*A^-1 deviation from orthogonality  is 2.66D-15 for   2283    371.
 Iteration    1 A^-1*A deviation from unit magnitude is 4.00D-15 for   1839.
 Iteration    1 A^-1*A deviation from orthogonality  is 1.25D-14 for   2305   2283.
 EnCoef did     4 forward-backward iterations
 Error on total polarization charges =  0.04469
 SCF Done:  E(RB3LYP) =  -1365.93127659     A.U. after   20 cycles
            NFock= 20  Conv=0.93D-08     -V/T= 2.0505
 SMD-CDS (non-electrostatic) energy       (kcal/mol) =      -4.18
 (included in total energy above)

 **********************************************************************

            Population analysis using the SCF Density.

 **********************************************************************

 Orbital symmetries:
       Occupied  (A) (A) (A) (A) (A) (A) (A) (A) (A) (A) (A) (A)
                 (A) (A) (A) (A) (A) (A) (A) (A) (A) (A) (A) (A)
                 (A) (A) (A) (A) (A) (A) (A) (A) (A) (A) (A) (A)
                 (A) (A) (A) (A) (A) (A) (A) (A) (A) (A) (A) (A)
                 (A) (A) (A) (A) (A) (A) (A) (A) (A) (A) (A) (A)
                 (A) (A) (A) (A) (A) (A) (A) (A) (A) (A) (A) (A)
                 (A) (A) (A) (A) (A) (A) (A) (A) (A) (A) (A) (A)
                 (A) (A) (A) (A) (A) (A) (A) (A) (A) (A) (A) (A)
                 (A) (A) (A) (A) (A) (A) (A) (A) (A)
       Virtual   (A) (A) (A) (A) (A) (A) (A) (A) (A) (A) (A) (A)
                 (A) (A) (A) (A) (A) (A) (A) (A) (A) (A) (A) (A)
                 (A) (A) (A) (A) (A) (A) (A) (A) (A) (A) (A) (A)
                 (A) (A) (A) (A) (A) (A) (A) (A) (A) (A) (A) (A)
                 (A) (A) (A) (A) (A) (A) (A) (A) (A) (A) (A) (A)
                 (A) (A) (A) (A) (A) (A) (A) (A) (A) (A) (A) (A)
                 (A) (A) (A) (A) (A) (A) (A) (A) (A) (A) (A) (A)
                 (A) (A) (A) (A) (A) (A) (A) (A) (A) (A) (A) (A)
                 (A) (A) (A) (A) (A) (A) (A) (A) (A) (A) (A) (A)
                 (A) (A) (A) (A) (A) (A) (A) (A) (A) (A) (A) (A)
                 (A) (A) (A) (A) (A) (A) (A) (A) (A) (A) (A) (A)
                 (A) (A) (A) (A) (A) (A) (A) (A) (A) (A) (A) (A)
                 (A) (A) (A) (A) (A) (A) (A) (A) (A) (A) (A) (A)
                 (A) (A) (A) (A) (A) (A) (A) (A) (A) (A) (A) (A)
                 (A) (A) (A) (A) (A) (A) (A) (A) (A) (A) (A) (A)
                 (A) (A) (A) (A) (A) (A) (A) (A) (A) (A) (A) (A)
                 (A) (A) (A) (A) (A) (A) (A) (A) (A) (A) (A) (A)
                 (A) (A) (A) (A) (A) (A) (A) (A) (A) (A) (A) (A)
                 (A) (A) (A) (A) (A) (A) (A) (A) (A) (A) (A) (A)
                 (A) (A) (A) (A) (A) (A) (A) (A) (A) (A) (A) (A)
                 (A) (A) (A) (A) (A) (A) (A) (A) (A) (A) (A) (A)
                 (A) (A) (A) (A) (A) (A) (A) (A) (A) (A) (A) (A)
                 (A) (A) (A) (A) (A) (A) (A) (A) (A) (A) (A) (A)
                 (A) (A) (A) (A) (A) (A) (A) (A) (A) (A) (A) (A)
                 (A) (A) (A) (A) (A) (A) (A) (A) (A) (A) (A) (A)
                 (A) (A) (A) (A) (A) (A) (A) (A) (A) (A) (A) (A)
                 (A) (A) (A) (A) (A) (A) (A) (A) (A) (A) (A) (A)
                 (A) (A) (A) (A) (A) (A) (A)
 The electronic state is 1-A.
 Alpha  occ. eigenvalues --  -19.16719 -19.16645 -19.12826 -19.12739 -14.41034
 Alpha  occ. eigenvalues --  -14.40977 -14.40531 -14.40444 -10.23709 -10.23473
 Alpha  occ. eigenvalues --  -10.21424 -10.21366 -10.18618 -10.18414 -10.17596
 Alpha  occ. eigenvalues --  -10.17576 -10.17521 -10.17475 -10.17468 -10.17467
 Alpha  occ. eigenvalues --  -10.17459 -10.17369 -10.16940 -10.16823 -10.16822
 Alpha  occ. eigenvalues --  -10.15514  -3.74611  -2.44635  -2.43788  -2.42816
 Alpha  occ. eigenvalues --   -1.09091  -1.08549  -1.06955  -1.06400  -0.90651
 Alpha  occ. eigenvalues --   -0.89458  -0.85825  -0.81958  -0.80912  -0.80643
 Alpha  occ. eigenvalues --   -0.75346  -0.74656  -0.74257  -0.74202  -0.70667
 Alpha  occ. eigenvalues --   -0.70548  -0.68326  -0.66409  -0.62356  -0.60354
 Alpha  occ. eigenvalues --   -0.60117  -0.58814  -0.54915  -0.53580  -0.52977
 Alpha  occ. eigenvalues --   -0.52131  -0.51358  -0.50925  -0.49416  -0.49034
 Alpha  occ. eigenvalues --   -0.47703  -0.47010  -0.46631  -0.46196  -0.45397
 Alpha  occ. eigenvalues --   -0.44551  -0.43348  -0.42774  -0.42440  -0.42289
 Alpha  occ. eigenvalues --   -0.42095  -0.41953  -0.41506  -0.40897  -0.40616
 Alpha  occ. eigenvalues --   -0.40019  -0.39585  -0.38994  -0.38854  -0.38487
 Alpha  occ. eigenvalues --   -0.38082  -0.38022  -0.37621  -0.37344  -0.36801
 Alpha  occ. eigenvalues --   -0.36138  -0.34874  -0.34390  -0.34326  -0.33258
 Alpha  occ. eigenvalues --   -0.32895  -0.31016  -0.30618  -0.28408  -0.28010
 Alpha  occ. eigenvalues --   -0.27782  -0.26661  -0.26366  -0.25267  -0.25101
 Alpha  occ. eigenvalues --   -0.25007  -0.22406  -0.20030  -0.19873  -0.19769
 Alpha virt. eigenvalues --   -0.09316  -0.03867  -0.03472  -0.00490   0.00040
 Alpha virt. eigenvalues --    0.00381   0.02610   0.02926   0.03226   0.06133
 Alpha virt. eigenvalues --    0.06713   0.06780   0.07827   0.11065   0.12445
 Alpha virt. eigenvalues --    0.12489   0.13644   0.14377   0.14788   0.14912
 Alpha virt. eigenvalues --    0.15360   0.16333   0.16377   0.16942   0.17368
 Alpha virt. eigenvalues --    0.17907   0.17919   0.18162   0.18167   0.18727
 Alpha virt. eigenvalues --    0.19270   0.19404   0.19622   0.20220   0.21647
 Alpha virt. eigenvalues --    0.22089   0.22859   0.23501   0.23540   0.24533
 Alpha virt. eigenvalues --    0.24806   0.24908   0.25604   0.26159   0.26616
 Alpha virt. eigenvalues --    0.26964   0.28000   0.28933   0.29299   0.29714
 Alpha virt. eigenvalues --    0.30387   0.31719   0.31957   0.33361   0.34307
 Alpha virt. eigenvalues --    0.34832   0.36087   0.36944   0.40281   0.41337
 Alpha virt. eigenvalues --    0.42183   0.42688   0.42790   0.44599   0.47235
 Alpha virt. eigenvalues --    0.47742   0.49674   0.51611   0.52101   0.53049
 Alpha virt. eigenvalues --    0.53508   0.53976   0.54273   0.55591   0.56276
 Alpha virt. eigenvalues --    0.56408   0.57028   0.57249   0.57974   0.58378
 Alpha virt. eigenvalues --    0.59761   0.60028   0.60113   0.60519   0.60980
 Alpha virt. eigenvalues --    0.61371   0.62151   0.62710   0.63170   0.63548
 Alpha virt. eigenvalues --    0.64762   0.65233   0.65867   0.67194   0.67842
 Alpha virt. eigenvalues --    0.68247   0.69297   0.69544   0.70211   0.70513
 Alpha virt. eigenvalues --    0.71140   0.71522   0.72291   0.72850   0.74736
 Alpha virt. eigenvalues --    0.75295   0.76089   0.76917   0.77227   0.78076
 Alpha virt. eigenvalues --    0.79414   0.80189   0.82057   0.82261   0.82727
 Alpha virt. eigenvalues --    0.83408   0.83768   0.84129   0.85022   0.85340
 Alpha virt. eigenvalues --    0.85573   0.86122   0.86395   0.86728   0.87665
 Alpha virt. eigenvalues --    0.88136   0.89525   0.89917   0.90193   0.90693
 Alpha virt. eigenvalues --    0.90999   0.91249   0.91384   0.92640   0.92786
 Alpha virt. eigenvalues --    0.93405   0.93841   0.94721   0.95612   0.96035
 Alpha virt. eigenvalues --    0.96409   0.97185   0.97556   0.97869   0.98639
 Alpha virt. eigenvalues --    0.99262   0.99681   1.00958   1.02485   1.02971
 Alpha virt. eigenvalues --    1.03375   1.04037   1.05156   1.05819   1.06168
 Alpha virt. eigenvalues --    1.07286   1.07654   1.08673   1.09758   1.11619
 Alpha virt. eigenvalues --    1.11861   1.12991   1.14503   1.14993   1.16209
 Alpha virt. eigenvalues --    1.16995   1.18324   1.20098   1.21282   1.21348
 Alpha virt. eigenvalues --    1.22208   1.23580   1.23785   1.24728   1.26622
 Alpha virt. eigenvalues --    1.27790   1.28429   1.29655   1.30193   1.31041
 Alpha virt. eigenvalues --    1.34123   1.34418   1.34976   1.35536   1.36085
 Alpha virt. eigenvalues --    1.36900   1.37235   1.37776   1.38687   1.38802
 Alpha virt. eigenvalues --    1.40047   1.40312   1.41686   1.42876   1.43488
 Alpha virt. eigenvalues --    1.44799   1.45717   1.47219   1.49445   1.49708
 Alpha virt. eigenvalues --    1.49931   1.50437   1.51787   1.52224   1.53002
 Alpha virt. eigenvalues --    1.54719   1.59931   1.60313   1.61680   1.61956
 Alpha virt. eigenvalues --    1.63856   1.69516   1.71763   1.74218   1.74574
 Alpha virt. eigenvalues --    1.75255   1.76250   1.76891   1.77540   1.78209
 Alpha virt. eigenvalues --    1.79502   1.79651   1.80677   1.81452   1.81865
 Alpha virt. eigenvalues --    1.82220   1.82998   1.83345   1.84232   1.85900
 Alpha virt. eigenvalues --    1.87303   1.87738   1.89858   1.90083   1.91394
 Alpha virt. eigenvalues --    1.91763   1.92770   1.93953   1.94336   1.94787
 Alpha virt. eigenvalues --    1.95671   1.96083   1.97379   1.98570   1.99039
 Alpha virt. eigenvalues --    1.99996   2.00983   2.01903   2.02435   2.04756
 Alpha virt. eigenvalues --    2.06658   2.09195   2.10231   2.11689   2.12682
 Alpha virt. eigenvalues --    2.12847   2.13699   2.14596   2.15280   2.15907
 Alpha virt. eigenvalues --    2.16149   2.16875   2.19289   2.20007   2.20461
 Alpha virt. eigenvalues --    2.21071   2.23727   2.24054   2.26572   2.28094
 Alpha virt. eigenvalues --    2.28740   2.29349   2.29455   2.30611   2.31820
 Alpha virt. eigenvalues --    2.32838   2.32976   2.33101   2.33750   2.34139
 Alpha virt. eigenvalues --    2.34789   2.36102   2.36264   2.38037   2.38718
 Alpha virt. eigenvalues --    2.40300   2.43810   2.45483   2.46453   2.51432
 Alpha virt. eigenvalues --    2.51682   2.52843   2.53116   2.54195   2.55796
 Alpha virt. eigenvalues --    2.56240   2.56759   2.58436   2.59901   2.60860
 Alpha virt. eigenvalues --    2.64101   2.64452   2.65008   2.66080   2.66281
 Alpha virt. eigenvalues --    2.67534   2.68108   2.70102   2.74283   2.75815
 Alpha virt. eigenvalues --    2.76444   2.77121   2.78466   2.82120   2.85709
 Alpha virt. eigenvalues --    2.86736   2.90686   2.91512   2.93373   2.96107
 Alpha virt. eigenvalues --    3.02756   3.04604   3.05817   3.08457   3.10234
 Alpha virt. eigenvalues --    3.10582   3.21256   3.29250   3.32232   3.46451
 Alpha virt. eigenvalues --   21.73761
          Condensed to atoms (all electrons):
 Mulliken charges:
               1
     1  Co   0.337644
     2  N   -0.167312
     3  O   -0.570542
     4  C    0.327369
     5  C   -0.547106
     6  H    0.204076
     7  H    0.196129
     8  H    0.197953
     9  N   -0.084608
    10  O   -0.553060
    11  C    0.277276
    12  C   -0.548912
    13  H    0.190407
    14  H    0.189599
    15  H    0.188061
    16  N   -0.169981
    17  O   -0.572789
    18  C    0.327388
    19  C   -0.546124
    20  H    0.205487
    21  H    0.199394
    22  H    0.200436
    23  N   -0.078020
    24  O   -0.557395
    25  C    0.269210
    26  C   -0.547851
    27  H    0.189470
    28  H    0.187210
    29  H    0.190335
    30  H    0.470611
    31  H    0.471057
    32  C   -0.407253
    33  H    0.194613
    34  H    0.198460
    35  C    0.232998
    36  C   -0.263786
    37  H    0.154017
    38  C   -0.562107
    39  H    0.175488
    40  H    0.166304
    41  H    0.183334
    42  C    0.145568
    43  C   -0.203892
    44  C   -0.201227
    45  C   -0.156127
    46  H    0.156394
    47  C   -0.157999
    48  H    0.161031
    49  C   -0.151630
    50  H    0.153886
    51  H    0.153566
    52  H    0.152952
 Sum of Mulliken charges =  -0.00000
 Mulliken charges with hydrogens summed into heavy atoms:
               1
     1  Co   0.337644
     2  N   -0.167312
     3  O   -0.099931
     4  C    0.327369
     5  C    0.051051
     9  N   -0.084608
    10  O   -0.553060
    11  C    0.277276
    12  C    0.019156
    16  N   -0.169981
    17  O   -0.101732
    18  C    0.327388
    19  C    0.059193
    23  N   -0.078020
    24  O   -0.557395
    25  C    0.269210
    26  C    0.019164
    32  C   -0.014179
    35  C    0.232998
    36  C   -0.109769
    38  C   -0.036982
    42  C    0.145568
    43  C   -0.047498
    44  C   -0.040196
    45  C   -0.002242
    47  C   -0.004433
    49  C    0.001323
 Electronic spatial extent (au):  <R**2>=          10496.3203
 Charge=              0.0000 electrons
 Dipole moment (field-independent basis, Debye):
    X=              0.2782    Y=              0.4613    Z=              0.8735  Tot=              1.0262
 Quadrupole moment (field-independent basis, Debye-Ang):
   XX=           -133.4177   YY=           -181.7881   ZZ=           -155.6203
   XY=            -10.5748   XZ=             -8.4190   YZ=              7.1717
 Traceless Quadrupole moment (field-independent basis, Debye-Ang):
   XX=             23.5244   YY=            -24.8461   ZZ=              1.3217
   XY=            -10.5748   XZ=             -8.4190   YZ=              7.1717
 Octapole moment (field-independent basis, Debye-Ang**2):
  XXX=            128.6538  YYY=              3.1065  ZZZ=             29.1006  XYY=              1.9037
  XXY=            -24.6297  XXZ=             -9.3932  XZZ=             10.0358  YZZ=             24.0710
  YYZ=             12.4729  XYZ=             26.4718
 Hexadecapole moment (field-independent basis, Debye-Ang**3):
 XXXX=          -8258.5755 YYYY=          -2524.9791 ZZZZ=          -1862.8815 XXXY=           -156.9956
 XXXZ=           -113.1281 YYYX=            -20.3293 YYYZ=              9.8505 ZZZX=            -40.2340
 ZZZY=              3.2516 XXYY=          -2055.6358 XXZZ=          -1838.6378 YYZZ=           -715.3099
 XXYZ=            -48.6415 YYXZ=            -57.5194 ZZXY=            -48.9564
 N-N= 2.996164229930D+03 E-N=-9.183701120183D+03  KE= 1.300227128724D+03
 Unable to Open any file for archive entry.
 1\1\GINC-N204\SP\RB3LYP\GenECP\C18H25Co1N4O4\CJD\02-Mar-2023\0\\# B3LY
 P/genecp em=GD3BJ int=fine scrf=(smd,solvent=acetone)\\Template\\0,1\C
 o,0,-1.0132881003,-0.6058312341,-0.7244829529\N,0,-0.7341688922,1.2333
 048584,-0.4698208456\O,0,-0.2154593748,2.1064462121,-1.3807292129\C,0,
 -1.1231987167,1.6864182577,0.6777357043\C,0,-1.0538281398,3.1211662218
 ,1.0739707615\H,0,-0.2471512103,3.2624511071,1.7918933414\H,0,-1.98498
 50349,3.4334662359,1.5399830866\H,0,-0.8544330635,3.7323516505,0.19738
 62755\N,0,-1.552117537,-0.5397709589,1.0699909486\O,0,-1.9307973266,-1
 .5758422786,1.7516173291\C,0,-1.604480776,0.6624616382,1.5713055281\C,
 0,-2.0841093882,0.9575141542,2.9560913181\H,0,-2.2864158464,0.01477537
 88,3.4602098286\H,0,-2.9989781971,1.548263927,2.9321319513\H,0,-1.3293
 047621,1.511157577,3.5102342766\N,0,-1.5611765242,-2.3764345638,-1.048
 9966754\O,0,-1.9142861135,-3.2977190707,-0.1055522409\C,0,-1.61196869,
 -2.7140125513,-2.2974666947\C,0,-2.0570516257,-4.0521690396,-2.7794479
 59\H,0,-1.2051601016,-4.5989657173,-3.1806274431\H,0,-2.7947015989,-3.
 9446273381,-3.5710949624\H,0,-2.4806006068,-4.6161717523,-1.9524062275
 \N,0,-0.7725818155,-0.5926242497,-2.6031982099\O,0,-0.3286639006,0.425
 5441739,-3.272772338\C,0,-1.1674310172,-1.6814433228,-3.2015691205\C,0
 ,-1.1428066646,-1.8640402744,-4.6854870595\H,0,-2.1500980338,-2.003728
 996,-5.0752662746\H,0,-0.5445356414,-2.7320390603,-4.9546870936\H,0,-0
 .7090697204,-0.9733206405,-5.1355645425\H,0,-0.1624660821,1.5547983716
 ,-2.2561309084\H,0,-1.9491450361,-2.7531614556,0.7743663833\C,0,0.9101
 662689,-1.152890851,-0.3446362012\H,0,0.8284524402,-2.2250899814,-0.16
 90164701\H,0,1.3974557513,-0.9289953914,-1.293440939\C,0,1.533533562,-
 0.4658115582,0.7730476388\C,0,2.1884220381,0.7033836639,0.5536039438\H
 ,0,2.1332702827,1.1129653925,-0.44748082\C,0,1.429140968,-1.1193468052
 ,2.1205508175\H,0,2.2323926417,-1.8449948274,2.2446800372\H,0,1.492124
 8313,-0.3887623229,2.9219506763\H,0,0.489043283,-1.6565501216,2.206993
 3932\C,0,2.9048153448,1.5458252019,1.49070661\C,0,2.8967634876,2.92894
 22342,1.266108969\C,0,3.6306435206,1.0620271382,2.5830483795\C,0,3.536
 0381558,3.7948937826,2.1298335823\H,0,2.3609942215,3.3158747032,0.4113
 403379\C,0,4.2849057872,1.9320552872,3.4361740594\H,0,3.7211679838,0.0
 001553876,2.73996573\C,0,4.2296226712,3.3001406704,3.2247063291\H,0,3.
 5026858869,4.859329924,1.9474616101\H,0,4.8461116855,1.5389020401,4.27
 15857966\H,0,4.7353668448,3.9759194255,3.8984339369\\Version=ES64L-G16
 RevC.01\State=1-A\HF=-1365.9312766\RMSD=9.332e-09\Dipole=-0.3800403,0.
 1256139,0.0529344\Quadrupole=-3.8957159,3.2671363,0.6285795,-2.238429,
 8.8608751,18.8896416\PG=C01 [X(C18H25Co1N4O4)]\\@
 The archive entry for this job was punched.


 KNOWLEDGE IS EXPERIMENT'S DAUGHTER.
 -- LEONARDO DA VINCI, IN "PENSIERI" CA. 1492
 Job cpu time:       0 days  0 hours 19 minutes 20.9 seconds.
 Elapsed time:       0 days  0 hours  1 minutes 14.5 seconds.
 File lengths (MBytes):  RWF=    330 Int=      0 D2E=      0 Chk=     14 Scr=      1
 Normal termination of Gaussian 16 at Thu Mar  2 08:41:32 2023.
