 Entering Gaussian System, Link 0=g16
 Initial command:
 /opt/local/g16/l1.exe "/data/tmp/cjd/Gau-4442.inp" -scrdir="/data/tmp/cjd/"
 Entering Link 1 = /opt/local/g16/l1.exe PID=      4443.
  
 Copyright (c) 1988-2019, Gaussian, Inc.  All Rights Reserved.
  
 This is part of the Gaussian(R) 16 program.  It is based on
 the Gaussian(R) 09 system (copyright 2009, Gaussian, Inc.),
 the Gaussian(R) 03 system (copyright 2003, Gaussian, Inc.),
 the Gaussian(R) 98 system (copyright 1998, Gaussian, Inc.),
 the Gaussian(R) 94 system (copyright 1995, Gaussian, Inc.),
 the Gaussian 92(TM) system (copyright 1992, Gaussian, Inc.),
 the Gaussian 90(TM) system (copyright 1990, Gaussian, Inc.),
 the Gaussian 88(TM) system (copyright 1988, Gaussian, Inc.),
 the Gaussian 86(TM) system (copyright 1986, Carnegie Mellon
 University), and the Gaussian 82(TM) system (copyright 1983,
 Carnegie Mellon University). Gaussian is a federally registered
 trademark of Gaussian, Inc.
  
 This software contains proprietary and confidential information,
 including trade secrets, belonging to Gaussian, Inc.
  
 This software is provided under written license and may be
 used, copied, transmitted, or stored only in accord with that
 written license.
  
 The following legend is applicable only to US Government
 contracts under FAR:
  
                    RESTRICTED RIGHTS LEGEND
  
 Use, reproduction and disclosure by the US Government is
 subject to restrictions as set forth in subparagraphs (a)
 and (c) of the Commercial Computer Software - Restricted
 Rights clause in FAR 52.227-19.
  
 Gaussian, Inc.
 340 Quinnipiac St., Bldg. 40, Wallingford CT 06492
  
  
 ---------------------------------------------------------------
 Warning -- This program may not be used in any manner that
 competes with the business of Gaussian, Inc. or will provide
 assistance to any competitor of Gaussian, Inc.  The licensee
 of this program is prohibited from giving any competitor of
 Gaussian, Inc. access to this program.  By using this program,
 the user acknowledges that Gaussian, Inc. is engaged in the
 business of creating and licensing software in the field of
 computational chemistry and represents and warrants to the
 licensee that it is not a competitor of Gaussian, Inc. and that
 it will not use this program in any manner prohibited above.
 ---------------------------------------------------------------
  

 Cite this work as:
 Gaussian 16, Revision C.01,
 M. J. Frisch, G. W. Trucks, H. B. Schlegel, G. E. Scuseria, 
 M. A. Robb, J. R. Cheeseman, G. Scalmani, V. Barone, 
 G. A. Petersson, H. Nakatsuji, X. Li, M. Caricato, A. V. Marenich, 
 J. Bloino, B. G. Janesko, R. Gomperts, B. Mennucci, H. P. Hratchian, 
 J. V. Ortiz, A. F. Izmaylov, J. L. Sonnenberg, D. Williams-Young, 
 F. Ding, F. Lipparini, F. Egidi, J. Goings, B. Peng, A. Petrone, 
 T. Henderson, D. Ranasinghe, V. G. Zakrzewski, J. Gao, N. Rega, 
 G. Zheng, W. Liang, M. Hada, M. Ehara, K. Toyota, R. Fukuda, 
 J. Hasegawa, M. Ishida, T. Nakajima, Y. Honda, O. Kitao, H. Nakai, 
 T. Vreven, K. Throssell, J. A. Montgomery, Jr., J. E. Peralta, 
 F. Ogliaro, M. J. Bearpark, J. J. Heyd, E. N. Brothers, K. N. Kudin, 
 V. N. Staroverov, T. A. Keith, R. Kobayashi, J. Normand, 
 K. Raghavachari, A. P. Rendell, J. C. Burant, S. S. Iyengar, 
 J. Tomasi, M. Cossi, J. M. Millam, M. Klene, C. Adamo, R. Cammi, 
 J. W. Ochterski, R. L. Martin, K. Morokuma, O. Farkas, 
 J. B. Foresman, and D. J. Fox, Gaussian, Inc., Wallingford CT, 2019.
 
 ******************************************
 Gaussian 16:  ES64L-G16RevC.01  3-Jul-2019
                 2-Mar-2023 
 ******************************************
 %nproc=16
 Will use up to   16 processors via shared memory.
 %mem=60GB
 -----------------------------------------------------------
 # B3LYP/genecp em=GD3BJ int=fine scrf=(smd,solvent=acetone)
 -----------------------------------------------------------
 1/38=1,172=1/1;
 2/12=2,17=6,18=5,40=1/2;
 3/5=7,11=2,16=1,17=8,25=1,30=1,70=32201,72=19,74=-5,75=-4,124=41/1,2,3;
 4//1;
 5/5=2,38=5,53=19/2;
 6/7=2,8=2,9=2,10=2,28=1/1;
 99/5=1,9=1/99;
 --------
 Template
 --------
 Symbolic Z-matrix:
 Charge =  0 Multiplicity = 1
 Co                   -1.01423  -0.59745  -0.73609 
 N                    -0.76037   1.24571  -0.48672 
 O                    -0.28991   2.12971  -1.41348 
 C                    -1.11659   1.68955   0.67505 
 C                    -1.06136   3.12444   1.07303 
 H                    -0.25462   3.27359   1.78911 
 H                    -1.99455   3.42477   1.54329 
 H                    -0.87428   3.7396    0.19658 
 N                    -1.49322  -0.54422   1.07652 
 O                    -1.83119  -1.58792   1.76789 
 C                    -1.54699   0.65569   1.58295 
 C                    -1.97853   0.93999   2.98556 
 H                    -2.16083  -0.00664   3.48996 
 H                    -2.89408   1.52983   2.99831 
 H                    -1.20501   1.49073   3.51657 
 N                    -1.53991  -2.37842  -1.04426 
 O                    -1.84821  -3.30643  -0.09168 
 C                    -1.62611  -2.71544  -2.291 
 C                    -2.06487  -4.06031  -2.7599 
 H                    -2.45846  -4.62912  -1.92139 
 H                    -1.21608  -4.59578  -3.18245 
 H                    -2.82432  -3.96429  -3.53211 
 N                    -0.83453  -0.57945  -2.62071 
 O                    -0.42992   0.44682  -3.30233 
 C                    -1.22852  -1.67478  -3.20754 
 C                    -1.24721  -1.85621  -4.69168 
 H                    -0.64558  -2.71568  -4.97998 
 H                    -0.84007  -0.95926  -5.15404 
 H                    -2.26403  -2.00959  -5.05039 
 H                    -0.25314   1.57958  -2.29042 
 H                    -1.86352  -2.76329   0.78973 
 C                     0.93697  -1.09054  -0.4343 
 H                     0.89895  -2.17376  -0.32249 
 H                     1.39225  -0.79214  -1.37847 
 C                     1.56387  -0.44876   0.70839 
 C                     2.17737   0.75143   0.54375 
 H                     2.08579   1.21724  -0.42982 
 C                     1.51011  -1.18179   2.01725 
 H                     1.58358  -0.49838   2.85832 
 H                     0.58118  -1.73899   2.09843 
 H                     2.32807  -1.89917   2.07595 
 C                     2.89335   1.55764   1.5127 
 C                     2.84187   2.95089   1.37288 
 C                     3.66039   1.03069   2.55587 
 C                     3.47749   3.7818    2.27299 
 H                     2.27664   3.37302   0.55452 
 C                     4.3104    1.86659   3.44557 
 H                     3.78575  -0.03551   2.64472 
 C                     4.21074   3.2427    3.31998 
 H                     3.41014   4.85385   2.1564 
 H                     4.90318   1.4404    4.24206 
 H                     4.71303   3.89124   4.02243 
 
 Stoichiometry    C18H25CoN4O4
 Framework group  C1[X(C18H25CoN4O4)]
 Deg. of freedom   150
 Full point group                 C1      NOp   1
 Largest Abelian subgroup         C1      NOp   1
 Largest concise Abelian subgroup C1      NOp   1
                         Standard orientation:                         
 ---------------------------------------------------------------------
 Center     Atomic      Atomic             Coordinates (Angstroms)
 Number     Number       Type             X           Y           Z
 ---------------------------------------------------------------------
      1         27           0        1.384046    0.088304    0.317556
      2          7           0        0.045327   -0.645172    1.410124
      3          8           0       -0.159147   -1.971130    1.658516
      4          6           0       -0.709722    0.224208    1.999749
      5          6           0       -1.795537   -0.126914    2.957918
      6          1           0       -2.764019    0.050083    2.492559
      7          1           0       -1.728599    0.489627    3.850998
      8          1           0       -1.719428   -1.177276    3.227220
      9          7           0        0.525883    1.701355    0.741150
     10          8           0        0.889225    2.858175    0.281525
     11          6           0       -0.431191    1.586393    1.618620
     12          6           0       -1.199180    2.749801    2.158114
     13          1           0       -0.864925    3.651134    1.648566
     14          1           0       -1.029842    2.864609    3.227900
     15          1           0       -2.265141    2.612127    1.989594
     16          7           0        2.874965    0.856845   -0.536660
     17          8           0        2.998165    2.157613   -0.932221
     18          6           0        3.868067    0.050569   -0.734228
     19          6           0        5.160056    0.459738   -1.354231
     20          1           0        5.196020    1.542514   -1.442913
     21          1           0        5.244910    0.021120   -2.347275
     22          1           0        5.996895    0.108601   -0.755313
     23          7           0        2.412619   -1.493162    0.158142
     24          8           0        2.016025   -2.661322    0.557733
     25          6           0        3.609243   -1.308294   -0.324838
     26          6           0        4.619811   -2.400919   -0.469257
     27          1           0        4.945563   -2.486917   -1.503790
     28          1           0        4.162655   -3.337303   -0.155811
     29          1           0        5.492105   -2.206515    0.153187
     30          1           0        0.662622   -2.436741    1.233173
     31          1           0        2.165661    2.621255   -0.527138
     32          6           0        0.390742   -0.238211   -1.428339
     33          1           0        0.959175    0.353647   -2.145198
     34          1           0        0.537629   -1.308372   -1.573100
     35          6           0       -1.014687    0.129499   -1.414386
     36          6           0       -1.939263   -0.789685   -1.034664
     37          1           0       -1.563923   -1.737539   -0.668756
     38          6           0       -1.359810    1.523347   -1.851906
     39          1           0       -2.297162    1.855859   -1.415269
     40          1           0       -0.573370    2.214231   -1.561775
     41          1           0       -1.445386    1.562279   -2.937399
     42          6           0       -3.382783   -0.670324   -0.975685
     43          6           0       -4.060214   -1.387824    0.019117
     44          6           0       -4.143087    0.087424   -1.871219
     45          6           0       -5.431210   -1.301917    0.151785
     46          1           0       -3.489130   -2.000968    0.701261
     47          6           0       -5.518666    0.156988   -1.745762
     48          1           0       -3.661759    0.587302   -2.695135
     49          6           0       -6.168042   -0.521989   -0.727586
     50          1           0       -5.931519   -1.849961    0.937127
     51          1           0       -6.089628    0.743401   -2.451126
     52          1           0       -7.241518   -0.457510   -0.628511
 ---------------------------------------------------------------------
 Rotational constants (GHZ):           0.3277020           0.1164086           0.1116501
 General basis read from cards:  (5D, 7F)
 ======================================================================================================
                                       Pseudopotential Parameters
 ======================================================================================================
  Center     Atomic      Valence      Angular      Power
  Number     Number     Electrons     Momentum     of R      Exponent        Coefficient   SO-Coeffient
 ======================================================================================================
    1         27           17
                                      D and up 
                                                     1      434.1076104      -10.00000000    0.00000000
                                                     2       78.8402758      -66.72402760    0.00000000
                                                     2       19.6037749      -11.71922430    0.00000000
                                      S - D
                                                     0      151.2307582        3.00000000    0.00000000
                                                     1      169.6790026       20.15531100    0.00000000
                                                     2       64.9909423      413.37622440    0.00000000
                                                     2       12.5076287      133.87277050    0.00000000
                                      P - D
                                                     0       92.7319924        5.00000000    0.00000000
                                                     1      121.1910183        6.18923530    0.00000000
                                                     2       48.6265909      326.32159190    0.00000000
                                                     2       11.9966971       73.87889700    0.00000000
    2          7
                                   No pseudopotential on this center.
    3          8
                                   No pseudopotential on this center.
    4          6
                                   No pseudopotential on this center.
    5          6
                                   No pseudopotential on this center.
    6          1
                                   No pseudopotential on this center.
    7          1
                                   No pseudopotential on this center.
    8          1
                                   No pseudopotential on this center.
    9          7
                                   No pseudopotential on this center.
   10          8
                                   No pseudopotential on this center.
   11          6
                                   No pseudopotential on this center.
   12          6
                                   No pseudopotential on this center.
   13          1
                                   No pseudopotential on this center.
   14          1
                                   No pseudopotential on this center.
   15          1
                                   No pseudopotential on this center.
   16          7
                                   No pseudopotential on this center.
   17          8
                                   No pseudopotential on this center.
   18          6
                                   No pseudopotential on this center.
   19          6
                                   No pseudopotential on this center.
   20          1
                                   No pseudopotential on this center.
   21          1
                                   No pseudopotential on this center.
   22          1
                                   No pseudopotential on this center.
   23          7
                                   No pseudopotential on this center.
   24          8
                                   No pseudopotential on this center.
   25          6
                                   No pseudopotential on this center.
   26          6
                                   No pseudopotential on this center.
   27          1
                                   No pseudopotential on this center.
   28          1
                                   No pseudopotential on this center.
   29          1
                                   No pseudopotential on this center.
   30          1
                                   No pseudopotential on this center.
   31          1
                                   No pseudopotential on this center.
   32          6
                                   No pseudopotential on this center.
   33          1
                                   No pseudopotential on this center.
   34          1
                                   No pseudopotential on this center.
   35          6
                                   No pseudopotential on this center.
   36          6
                                   No pseudopotential on this center.
   37          1
                                   No pseudopotential on this center.
   38          6
                                   No pseudopotential on this center.
   39          1
                                   No pseudopotential on this center.
   40          1
                                   No pseudopotential on this center.
   41          1
                                   No pseudopotential on this center.
   42          6
                                   No pseudopotential on this center.
   43          6
                                   No pseudopotential on this center.
   44          6
                                   No pseudopotential on this center.
   45          6
                                   No pseudopotential on this center.
   46          1
                                   No pseudopotential on this center.
   47          6
                                   No pseudopotential on this center.
   48          1
                                   No pseudopotential on this center.
   49          6
                                   No pseudopotential on this center.
   50          1
                                   No pseudopotential on this center.
   51          1
                                   No pseudopotential on this center.
   52          1
                                   No pseudopotential on this center.
 ======================================================================================================
 There are   464 symmetry adapted cartesian basis functions of A   symmetry.
 There are   436 symmetry adapted basis functions of A   symmetry.
   436 basis functions,   880 primitive gaussians,   464 cartesian basis functions
   105 alpha electrons      105 beta electrons
       nuclear repulsion energy      2996.2350110739 Hartrees.
 NAtoms=   52 NActive=   52 NUniq=   52 SFac= 1.00D+00 NAtFMM=   60 NAOKFM=F Big=F
 Integral buffers will be    131072 words long.
 Raffenetti 2 integral format.
 Two-electron integral symmetry is turned on.
 Nuclear repulsion after empirical dispersion term =     2996.1102160420 Hartrees.
 ------------------------------------------------------------------------------
 Polarizable Continuum Model (PCM)
 =================================
 Model                : PCM.
 Atomic radii         : SMD-Coulomb.
 Polarization charges : Total charges.
 Charge compensation  : None.
 Solution method      : On-the-fly selection.
 Cavity type          : VdW (van der Waals Surface) (Alpha=1.000).
 Cavity algorithm     : GePol (No added spheres)
                        Default sphere list used, NSphG=   52.
                        Lebedev-Laikov grids with approx.  5.0 points / Ang**2.
                        Smoothing algorithm: York/Karplus (Gamma=1.0000).
                        Polarization charges: spherical gaussians, with
                                              point-specific exponents (IZeta= 3).
                        Self-potential: point-specific (ISelfS= 7).
                        Self-field    : sphere-specific E.n sum rule (ISelfD= 2).
 Solvent              : Acetone, Eps=  20.493000 Eps(inf)=   1.846337
 ------------------------------------------------------------------------------
 ------------------------------------------------------------------------------
 Atomic radii for non-electrostatic terms: SMD-CDS.
 ------------------------------------------------------------------------------
 Nuclear repulsion after PCM non-electrostatic terms =     2996.1035725815 Hartrees.
 One-electron integrals computed using PRISM.
   1 Symmetry operations used in ECPInt.
 ECPInt:  NShTT=   13203 NPrTT=   81964 LenC2=   11304 LenP2D=   39197.
 LDataN:  DoStor=T MaxTD1= 4 Len=   56
 NBasis=   436 RedAO= T EigKep=  4.37D-04  NBF=   436
 NBsUse=   436 1.00D-06 EigRej= -1.00D+00 NBFU=   436
 ExpMin= 2.30D-02 ExpMax= 5.48D+03 ExpMxC= 8.25D+02 IAcc=3 IRadAn=         5 AccDes= 0.00D+00
 Harris functional with IExCor=  402 and IRadAn=       5 diagonalized for initial guess.
 HarFok:  IExCor=  402 AccDes= 0.00D+00 IRadAn=         5 IDoV= 1 UseB2=F ITyADJ=14
 ICtDFT=  3500011 ScaDFX=  1.000000  1.000000  1.000000  1.000000
 FoFCou: FMM=F IPFlag=           0 FMFlag=      100000 FMFlg1=           0
         NFxFlg=           0 DoJE=T BraDBF=F KetDBF=T FulRan=T
         wScrn=  0.000000 ICntrl=       500 IOpCl=  0 I1Cent=   200000004 NGrid=           0
         NMat0=    1 NMatS0=      1 NMatT0=    0 NMatD0=    1 NMtDS0=    0 NMtDT0=    0
 Petite list used in FoFCou.
 Requested convergence on RMS density matrix=1.00D-08 within 128 cycles.
 Requested convergence on MAX density matrix=1.00D-06.
 Requested convergence on             energy=1.00D-06.
 No special actions if energy rises.
 Inv3:  Mode=1 IEnd=    40428723.
 Iteration    1 A*A^-1 deviation from unit magnitude is 3.11D-15 for    211.
 Iteration    1 A*A^-1 deviation from orthogonality  is 3.07D-15 for   1772    765.
 Iteration    1 A^-1*A deviation from unit magnitude is 2.89D-15 for   2792.
 Iteration    1 A^-1*A deviation from orthogonality  is 2.09D-15 for   2435   2306.
 EnCoef did     5 forward-backward iterations
 Error on total polarization charges =  0.04475
 SCF Done:  E(RB3LYP) =  -1365.93136650     A.U. after   20 cycles
            NFock= 20  Conv=0.93D-08     -V/T= 2.0505
 SMD-CDS (non-electrostatic) energy       (kcal/mol) =      -4.17
 (included in total energy above)

 **********************************************************************

            Population analysis using the SCF Density.

 **********************************************************************

 Orbital symmetries:
       Occupied  (A) (A) (A) (A) (A) (A) (A) (A) (A) (A) (A) (A)
                 (A) (A) (A) (A) (A) (A) (A) (A) (A) (A) (A) (A)
                 (A) (A) (A) (A) (A) (A) (A) (A) (A) (A) (A) (A)
                 (A) (A) (A) (A) (A) (A) (A) (A) (A) (A) (A) (A)
                 (A) (A) (A) (A) (A) (A) (A) (A) (A) (A) (A) (A)
                 (A) (A) (A) (A) (A) (A) (A) (A) (A) (A) (A) (A)
                 (A) (A) (A) (A) (A) (A) (A) (A) (A) (A) (A) (A)
                 (A) (A) (A) (A) (A) (A) (A) (A) (A) (A) (A) (A)
                 (A) (A) (A) (A) (A) (A) (A) (A) (A)
       Virtual   (A) (A) (A) (A) (A) (A) (A) (A) (A) (A) (A) (A)
                 (A) (A) (A) (A) (A) (A) (A) (A) (A) (A) (A) (A)
                 (A) (A) (A) (A) (A) (A) (A) (A) (A) (A) (A) (A)
                 (A) (A) (A) (A) (A) (A) (A) (A) (A) (A) (A) (A)
                 (A) (A) (A) (A) (A) (A) (A) (A) (A) (A) (A) (A)
                 (A) (A) (A) (A) (A) (A) (A) (A) (A) (A) (A) (A)
                 (A) (A) (A) (A) (A) (A) (A) (A) (A) (A) (A) (A)
                 (A) (A) (A) (A) (A) (A) (A) (A) (A) (A) (A) (A)
                 (A) (A) (A) (A) (A) (A) (A) (A) (A) (A) (A) (A)
                 (A) (A) (A) (A) (A) (A) (A) (A) (A) (A) (A) (A)
                 (A) (A) (A) (A) (A) (A) (A) (A) (A) (A) (A) (A)
                 (A) (A) (A) (A) (A) (A) (A) (A) (A) (A) (A) (A)
                 (A) (A) (A) (A) (A) (A) (A) (A) (A) (A) (A) (A)
                 (A) (A) (A) (A) (A) (A) (A) (A) (A) (A) (A) (A)
                 (A) (A) (A) (A) (A) (A) (A) (A) (A) (A) (A) (A)
                 (A) (A) (A) (A) (A) (A) (A) (A) (A) (A) (A) (A)
                 (A) (A) (A) (A) (A) (A) (A) (A) (A) (A) (A) (A)
                 (A) (A) (A) (A) (A) (A) (A) (A) (A) (A) (A) (A)
                 (A) (A) (A) (A) (A) (A) (A) (A) (A) (A) (A) (A)
                 (A) (A) (A) (A) (A) (A) (A) (A) (A) (A) (A) (A)
                 (A) (A) (A) (A) (A) (A) (A) (A) (A) (A) (A) (A)
                 (A) (A) (A) (A) (A) (A) (A) (A) (A) (A) (A) (A)
                 (A) (A) (A) (A) (A) (A) (A) (A) (A) (A) (A) (A)
                 (A) (A) (A) (A) (A) (A) (A) (A) (A) (A) (A) (A)
                 (A) (A) (A) (A) (A) (A) (A) (A) (A) (A) (A) (A)
                 (A) (A) (A) (A) (A) (A) (A) (A) (A) (A) (A) (A)
                 (A) (A) (A) (A) (A) (A) (A) (A) (A) (A) (A) (A)
                 (A) (A) (A) (A) (A) (A) (A)
 The electronic state is 1-A.
 Alpha  occ. eigenvalues --  -19.16726 -19.16631 -19.12824 -19.12747 -14.41032
 Alpha  occ. eigenvalues --  -14.40988 -14.40521 -14.40465 -10.23708 -10.23479
 Alpha  occ. eigenvalues --  -10.21417 -10.21367 -10.18619 -10.18410 -10.17597
 Alpha  occ. eigenvalues --  -10.17576 -10.17520 -10.17473 -10.17471 -10.17465
 Alpha  occ. eigenvalues --  -10.17456 -10.17368 -10.16943 -10.16823 -10.16817
 Alpha  occ. eigenvalues --  -10.15473  -3.74623  -2.44645  -2.43801  -2.42832
 Alpha  occ. eigenvalues --   -1.09090  -1.08546  -1.06962  -1.06408  -0.90654
 Alpha  occ. eigenvalues --   -0.89460  -0.85826  -0.81961  -0.80905  -0.80646
 Alpha  occ. eigenvalues --   -0.75343  -0.74657  -0.74261  -0.74204  -0.70667
 Alpha  occ. eigenvalues --   -0.70548  -0.68308  -0.66408  -0.62356  -0.60354
 Alpha  occ. eigenvalues --   -0.60116  -0.58813  -0.54918  -0.53584  -0.52969
 Alpha  occ. eigenvalues --   -0.52129  -0.51364  -0.50931  -0.49417  -0.49036
 Alpha  occ. eigenvalues --   -0.47709  -0.47011  -0.46627  -0.46190  -0.45405
 Alpha  occ. eigenvalues --   -0.44555  -0.43327  -0.42777  -0.42460  -0.42285
 Alpha  occ. eigenvalues --   -0.42095  -0.41946  -0.41503  -0.40900  -0.40614
 Alpha  occ. eigenvalues --   -0.40012  -0.39593  -0.38970  -0.38857  -0.38480
 Alpha  occ. eigenvalues --   -0.38081  -0.38012  -0.37625  -0.37362  -0.36793
 Alpha  occ. eigenvalues --   -0.36122  -0.34860  -0.34399  -0.34331  -0.33247
 Alpha  occ. eigenvalues --   -0.32887  -0.31008  -0.30650  -0.28399  -0.28006
 Alpha  occ. eigenvalues --   -0.27784  -0.26660  -0.26392  -0.25272  -0.25106
 Alpha  occ. eigenvalues --   -0.25004  -0.22415  -0.20008  -0.19902  -0.19778
 Alpha virt. eigenvalues --   -0.09332  -0.03853  -0.03461  -0.00499   0.00027
 Alpha virt. eigenvalues --    0.00374   0.02614   0.02942   0.03220   0.06151
 Alpha virt. eigenvalues --    0.06719   0.06785   0.07824   0.11065   0.12469
 Alpha virt. eigenvalues --    0.12488   0.13639   0.14327   0.14752   0.14906
 Alpha virt. eigenvalues --    0.15371   0.16280   0.16356   0.16952   0.17412
 Alpha virt. eigenvalues --    0.17853   0.17961   0.18154   0.18172   0.18704
 Alpha virt. eigenvalues --    0.19257   0.19431   0.19741   0.20225   0.21668
 Alpha virt. eigenvalues --    0.22064   0.22860   0.23510   0.23598   0.24703
 Alpha virt. eigenvalues --    0.24864   0.24919   0.25598   0.26150   0.26597
 Alpha virt. eigenvalues --    0.26956   0.27999   0.28973   0.29280   0.29703
 Alpha virt. eigenvalues --    0.30363   0.31713   0.31958   0.33362   0.34308
 Alpha virt. eigenvalues --    0.34831   0.36049   0.36905   0.40312   0.41375
 Alpha virt. eigenvalues --    0.42200   0.42681   0.42804   0.44562   0.47215
 Alpha virt. eigenvalues --    0.47758   0.49709   0.51619   0.52232   0.53089
 Alpha virt. eigenvalues --    0.53498   0.53953   0.54283   0.55549   0.56266
 Alpha virt. eigenvalues --    0.56403   0.57026   0.57248   0.57976   0.58443
 Alpha virt. eigenvalues --    0.59758   0.59990   0.60180   0.60548   0.61004
 Alpha virt. eigenvalues --    0.61361   0.62202   0.62727   0.63154   0.63548
 Alpha virt. eigenvalues --    0.64783   0.65253   0.65820   0.67174   0.67791
 Alpha virt. eigenvalues --    0.68259   0.69298   0.69580   0.70177   0.70602
 Alpha virt. eigenvalues --    0.71155   0.71632   0.72400   0.72876   0.74723
 Alpha virt. eigenvalues --    0.75301   0.75967   0.77028   0.77296   0.78135
 Alpha virt. eigenvalues --    0.79519   0.80202   0.82122   0.82490   0.82672
 Alpha virt. eigenvalues --    0.83362   0.83759   0.84111   0.85079   0.85327
 Alpha virt. eigenvalues --    0.85584   0.86107   0.86361   0.86672   0.87668
 Alpha virt. eigenvalues --    0.88250   0.89546   0.89892   0.90393   0.90548
 Alpha virt. eigenvalues --    0.90966   0.91297   0.91333   0.92628   0.92782
 Alpha virt. eigenvalues --    0.93507   0.94072   0.94766   0.95592   0.96108
 Alpha virt. eigenvalues --    0.96450   0.97097   0.97659   0.97951   0.98602
 Alpha virt. eigenvalues --    0.99119   0.99892   1.01016   1.02335   1.03061
 Alpha virt. eigenvalues --    1.03448   1.04025   1.05359   1.05887   1.06344
 Alpha virt. eigenvalues --    1.07370   1.07651   1.08752   1.09723   1.11608
 Alpha virt. eigenvalues --    1.11717   1.12989   1.14397   1.14880   1.16438
 Alpha virt. eigenvalues --    1.17247   1.18263   1.20075   1.21044   1.21476
 Alpha virt. eigenvalues --    1.22521   1.23650   1.23795   1.24790   1.26792
 Alpha virt. eigenvalues --    1.28025   1.28413   1.29630   1.30515   1.31448
 Alpha virt. eigenvalues --    1.33856   1.34276   1.34965   1.35400   1.36053
 Alpha virt. eigenvalues --    1.36947   1.37305   1.37776   1.38689   1.38830
 Alpha virt. eigenvalues --    1.40027   1.40337   1.41586   1.42864   1.43524
 Alpha virt. eigenvalues --    1.44815   1.45634   1.47285   1.49437   1.49674
 Alpha virt. eigenvalues --    1.49970   1.50473   1.51884   1.52212   1.53079
 Alpha virt. eigenvalues --    1.54766   1.60025   1.60453   1.61393   1.61910
 Alpha virt. eigenvalues --    1.64187   1.69441   1.71812   1.74203   1.74630
 Alpha virt. eigenvalues --    1.75236   1.76218   1.76939   1.77560   1.78158
 Alpha virt. eigenvalues --    1.79518   1.79651   1.80717   1.81495   1.81830
 Alpha virt. eigenvalues --    1.82198   1.83096   1.83156   1.84255   1.85952
 Alpha virt. eigenvalues --    1.87156   1.87685   1.89772   1.90103   1.91463
 Alpha virt. eigenvalues --    1.91733   1.92807   1.93968   1.94326   1.94789
 Alpha virt. eigenvalues --    1.95549   1.96313   1.97435   1.98530   1.99016
 Alpha virt. eigenvalues --    2.00041   2.01013   2.01912   2.02603   2.04714
 Alpha virt. eigenvalues --    2.06724   2.09162   2.10260   2.11817   2.12711
 Alpha virt. eigenvalues --    2.12937   2.13648   2.14608   2.15107   2.15936
 Alpha virt. eigenvalues --    2.16157   2.16894   2.19229   2.20020   2.20433
 Alpha virt. eigenvalues --    2.21031   2.23719   2.24136   2.26559   2.28132
 Alpha virt. eigenvalues --    2.28736   2.29412   2.29551   2.30590   2.31767
 Alpha virt. eigenvalues --    2.32863   2.33065   2.33150   2.33673   2.34150
 Alpha virt. eigenvalues --    2.34728   2.36184   2.36272   2.38221   2.38699
 Alpha virt. eigenvalues --    2.40358   2.43844   2.45582   2.46470   2.51505
 Alpha virt. eigenvalues --    2.51683   2.52870   2.53207   2.54218   2.55843
 Alpha virt. eigenvalues --    2.56223   2.56752   2.58281   2.60012   2.60896
 Alpha virt. eigenvalues --    2.64119   2.64480   2.65050   2.66123   2.66307
 Alpha virt. eigenvalues --    2.67582   2.68084   2.70048   2.74267   2.75803
 Alpha virt. eigenvalues --    2.76388   2.77140   2.78523   2.82110   2.85722
 Alpha virt. eigenvalues --    2.86693   2.90693   2.91579   2.93362   2.96112
 Alpha virt. eigenvalues --    3.02669   3.04712   3.05828   3.08522   3.10275
 Alpha virt. eigenvalues --    3.10567   3.21299   3.29260   3.32252   3.46447
 Alpha virt. eigenvalues --   21.72380
          Condensed to atoms (all electrons):
 Mulliken charges:
               1
     1  Co   0.336841
     2  N   -0.167960
     3  O   -0.570997
     4  C    0.329294
     5  C   -0.547781
     6  H    0.203688
     7  H    0.196610
     8  H    0.198155
     9  N   -0.084688
    10  O   -0.552501
    11  C    0.277195
    12  C   -0.548865
    13  H    0.190452
    14  H    0.189275
    15  H    0.188383
    16  N   -0.170751
    17  O   -0.572766
    18  C    0.327185
    19  C   -0.546077
    20  H    0.200464
    21  H    0.205477
    22  H    0.199230
    23  N   -0.076916
    24  O   -0.557309
    25  C    0.269460
    26  C   -0.547737
    27  H    0.187177
    28  H    0.190376
    29  H    0.189540
    30  H    0.470526
    31  H    0.471027
    32  C   -0.407028
    33  H    0.195323
    34  H    0.197919
    35  C    0.233432
    36  C   -0.266687
    37  H    0.154428
    38  C   -0.561859
    39  H    0.165969
    40  H    0.183776
    41  H    0.174695
    42  C    0.146572
    43  C   -0.203624
    44  C   -0.201354
    45  C   -0.156479
    46  H    0.156779
    47  C   -0.157940
    48  H    0.161278
    49  C   -0.151573
    50  H    0.153861
    51  H    0.153554
    52  H    0.152948
 Sum of Mulliken charges =  -0.00000
 Mulliken charges with hydrogens summed into heavy atoms:
               1
     1  Co   0.336841
     2  N   -0.167960
     3  O   -0.100471
     4  C    0.329294
     5  C    0.050673
     9  N   -0.084688
    10  O   -0.552501
    11  C    0.277195
    12  C    0.019245
    16  N   -0.170751
    17  O   -0.101739
    18  C    0.327185
    19  C    0.059094
    23  N   -0.076916
    24  O   -0.557309
    25  C    0.269460
    26  C    0.019356
    32  C   -0.013786
    35  C    0.233432
    36  C   -0.112260
    38  C   -0.037419
    42  C    0.146572
    43  C   -0.046845
    44  C   -0.040076
    45  C   -0.002617
    47  C   -0.004386
    49  C    0.001375
 Electronic spatial extent (au):  <R**2>=          10507.4940
 Charge=             -0.0000 electrons
 Dipole moment (field-independent basis, Debye):
    X=              0.2881    Y=              0.3977    Z=              0.9115  Tot=              1.0354
 Quadrupole moment (field-independent basis, Debye-Ang):
   XX=           -132.8732   YY=           -183.7879   ZZ=           -154.1539
   XY=             -8.3480   XZ=             -9.7335   YZ=              4.3343
 Traceless Quadrupole moment (field-independent basis, Debye-Ang):
   XX=             24.0651   YY=            -26.8496   ZZ=              2.7844
   XY=             -8.3480   XZ=             -9.7335   YZ=              4.3343
 Octapole moment (field-independent basis, Debye-Ang**2):
  XXX=            131.4461  YYY=              0.2850  ZZZ=             35.1498  XYY=             -2.3531
  XXY=            -18.1957  XXZ=            -12.1101  XZZ=             13.3958  YZZ=             22.1545
  YYZ=              7.8451  XYZ=             25.1324
 Hexadecapole moment (field-independent basis, Debye-Ang**3):
 XXXX=          -8295.5035 YYYY=          -2455.2708 ZZZZ=          -1884.8250 XXXY=           -132.5365
 XXXZ=           -132.7705 YYYX=             -2.7362 YYYZ=             -1.7294 ZZZX=            -52.8505
 ZZZY=             -1.2956 XXYY=          -2056.6891 XXZZ=          -1855.1586 YYZZ=           -711.9346
 XXYZ=            -61.7730 YYXZ=            -46.8227 ZZXY=            -51.8842
 N-N= 2.996103572582D+03 E-N=-9.183558512901D+03  KE= 1.300228580067D+03
 Unable to Open any file for archive entry.
 1\1\GINC-N204\SP\RB3LYP\GenECP\C18H25Co1N4O4\CJD\02-Mar-2023\0\\# B3LY
 P/genecp em=GD3BJ int=fine scrf=(smd,solvent=acetone)\\Template\\0,1\C
 o,0,-1.0142336998,-0.5974473709,-0.7360851798\N,0,-0.7603713112,1.2457
 108471,-0.4867166518\O,0,-0.2899102215,2.1297095953,-1.4134775043\C,0,
 -1.1165865316,1.6895454017,0.6750491953\C,0,-1.0613553237,3.1244415151
 ,1.0730318761\H,0,-0.2546167008,3.2735863931,1.7891126392\H,0,-1.99454
 89134,3.4247717791,1.5432948282\H,0,-0.8742825011,3.7395954472,0.19658
 15402\N,0,-1.4932174932,-0.544223638,1.0765235267\O,0,-1.8311920415,-1
 .5879157866,1.767887885\C,0,-1.54699227,0.6556929945,1.5829513557\C,0,
 -1.978534641,0.9399929796,2.9855649487\H,0,-2.1608331402,-0.0066419963
 ,3.4899624363\H,0,-2.8940846074,1.5298255791,2.9983087888\H,0,-1.20500
 55203,1.4907315572,3.5165702641\N,0,-1.5399079458,-2.3784230819,-1.044
 257578\O,0,-1.8482093975,-3.3064307696,-0.0916847747\C,0,-1.6261067745
 ,-2.7154405055,-2.2909950821\C,0,-2.0648712944,-4.0603103808,-2.759898
 8158\H,0,-2.4584589104,-4.6291215971,-1.9213854142\H,0,-1.2160813446,-
 4.5957788399,-3.1824510764\H,0,-2.824321832,-3.964291174,-3.5321137557
 \N,0,-0.8345319554,-0.579449224,-2.6207054172\O,0,-0.4299234152,0.4468
 246395,-3.3023282485\C,0,-1.2285191239,-1.6747828512,-3.2075394374\C,0
 ,-1.247210655,-1.8562101241,-4.69167844\H,0,-0.6455838735,-2.715684778
 6,-4.9799786206\H,0,-0.8400714354,-0.9592600909,-5.1540357576\H,0,-2.2
 640331347,-2.0095885277,-5.0503885124\H,0,-0.2531394177,1.5795807027,-
 2.2904161534\H,0,-1.8635155194,-2.7632922371,0.7897265361\C,0,0.936970
 2367,-1.0905435522,-0.4342990636\H,0,0.8989478203,-2.1737566562,-0.322
 4865952\H,0,1.3922463887,-0.7921406268,-1.378467547\C,0,1.5638706136,-
 0.448755701,0.708390903\C,0,2.1773651327,0.7514298368,0.5437502225\H,0
 ,2.0857916521,1.217237207,-0.4298178526\C,0,1.5101136525,-1.1817882458
 ,2.0172532697\H,0,1.583580104,-0.4983789297,2.8583239783\H,0,0.5811765
 572,-1.7389855862,2.0984310156\H,0,2.3280675504,-1.8991730159,2.075951
 9726\C,0,2.8933502276,1.5576388083,1.512701792\C,0,2.8418708663,2.9508
 911697,1.3728827505\C,0,3.6603925897,1.0306934282,2.5558695565\C,0,3.4
 774900567,3.7818023513,2.2729860498\H,0,2.2766364103,3.3730248076,0.55
 45209684\C,0,4.3104006438,1.8665881015,3.4455698404\H,0,3.7857478262,-
 0.0355072286,2.6447220125\C,0,4.2107444073,3.2426982146,3.3199846319\H
 ,0,3.410141018,4.8538538115,2.1563980276\H,0,4.9031826234,1.4404042937
 ,4.2420575419\H,0,4.7130308754,3.8912352523,4.0224322907\\Version=ES64
 L-G16RevC.01\State=1-A\HF=-1365.9313665\RMSD=9.335e-09\Dipole=-0.38623
 48,0.1125112,0.0640249\Quadrupole=-3.3619397,3.1984209,0.1635188,-2.00
 57907,8.7204003,19.2838707\PG=C01 [X(C18H25Co1N4O4)]\\@
 The archive entry for this job was punched.


 I DO NOT KNOW WHAT I MAY APPEAR TO THE WORLD; BUT TO MYSELF
 I SEEM TO HAVE BEEN ONLY LIKE A BOY PLAYING ON THE SEASHORE,
 AND DIVERTING MYSELF IN NOW AND THEN FINDING A SMOOTHER PEBBLE
 OR A PRETTIER SHELL THAN ORDINARY, WHILST THE GREAT OCEAN OF
 TRUTH LAY ALL UNDISCOVERED BEFORE ME.
                                          -- NEWTON (1642-1726)
 Job cpu time:       0 days  0 hours 19 minutes 49.6 seconds.
 Elapsed time:       0 days  0 hours  1 minutes 16.2 seconds.
 File lengths (MBytes):  RWF=    329 Int=      0 D2E=      0 Chk=     14 Scr=      1
 Normal termination of Gaussian 16 at Thu Mar  2 08:44:24 2023.
