 Entering Gaussian System, Link 0=g16
 Initial command:
 /opt/local/g16/l1.exe "/data/tmp/cjd/Gau-3114.inp" -scrdir="/data/tmp/cjd/"
 Entering Link 1 = /opt/local/g16/l1.exe PID=      3115.
  
 Copyright (c) 1988-2019, Gaussian, Inc.  All Rights Reserved.
  
 This is part of the Gaussian(R) 16 program.  It is based on
 the Gaussian(R) 09 system (copyright 2009, Gaussian, Inc.),
 the Gaussian(R) 03 system (copyright 2003, Gaussian, Inc.),
 the Gaussian(R) 98 system (copyright 1998, Gaussian, Inc.),
 the Gaussian(R) 94 system (copyright 1995, Gaussian, Inc.),
 the Gaussian 92(TM) system (copyright 1992, Gaussian, Inc.),
 the Gaussian 90(TM) system (copyright 1990, Gaussian, Inc.),
 the Gaussian 88(TM) system (copyright 1988, Gaussian, Inc.),
 the Gaussian 86(TM) system (copyright 1986, Carnegie Mellon
 University), and the Gaussian 82(TM) system (copyright 1983,
 Carnegie Mellon University). Gaussian is a federally registered
 trademark of Gaussian, Inc.
  
 This software contains proprietary and confidential information,
 including trade secrets, belonging to Gaussian, Inc.
  
 This software is provided under written license and may be
 used, copied, transmitted, or stored only in accord with that
 written license.
  
 The following legend is applicable only to US Government
 contracts under FAR:
  
                    RESTRICTED RIGHTS LEGEND
  
 Use, reproduction and disclosure by the US Government is
 subject to restrictions as set forth in subparagraphs (a)
 and (c) of the Commercial Computer Software - Restricted
 Rights clause in FAR 52.227-19.
  
 Gaussian, Inc.
 340 Quinnipiac St., Bldg. 40, Wallingford CT 06492
  
  
 ---------------------------------------------------------------
 Warning -- This program may not be used in any manner that
 competes with the business of Gaussian, Inc. or will provide
 assistance to any competitor of Gaussian, Inc.  The licensee
 of this program is prohibited from giving any competitor of
 Gaussian, Inc. access to this program.  By using this program,
 the user acknowledges that Gaussian, Inc. is engaged in the
 business of creating and licensing software in the field of
 computational chemistry and represents and warrants to the
 licensee that it is not a competitor of Gaussian, Inc. and that
 it will not use this program in any manner prohibited above.
 ---------------------------------------------------------------
  

 Cite this work as:
 Gaussian 16, Revision C.01,
 M. J. Frisch, G. W. Trucks, H. B. Schlegel, G. E. Scuseria, 
 M. A. Robb, J. R. Cheeseman, G. Scalmani, V. Barone, 
 G. A. Petersson, H. Nakatsuji, X. Li, M. Caricato, A. V. Marenich, 
 J. Bloino, B. G. Janesko, R. Gomperts, B. Mennucci, H. P. Hratchian, 
 J. V. Ortiz, A. F. Izmaylov, J. L. Sonnenberg, D. Williams-Young, 
 F. Ding, F. Lipparini, F. Egidi, J. Goings, B. Peng, A. Petrone, 
 T. Henderson, D. Ranasinghe, V. G. Zakrzewski, J. Gao, N. Rega, 
 G. Zheng, W. Liang, M. Hada, M. Ehara, K. Toyota, R. Fukuda, 
 J. Hasegawa, M. Ishida, T. Nakajima, Y. Honda, O. Kitao, H. Nakai, 
 T. Vreven, K. Throssell, J. A. Montgomery, Jr., J. E. Peralta, 
 F. Ogliaro, M. J. Bearpark, J. J. Heyd, E. N. Brothers, K. N. Kudin, 
 V. N. Staroverov, T. A. Keith, R. Kobayashi, J. Normand, 
 K. Raghavachari, A. P. Rendell, J. C. Burant, S. S. Iyengar, 
 J. Tomasi, M. Cossi, J. M. Millam, M. Klene, C. Adamo, R. Cammi, 
 J. W. Ochterski, R. L. Martin, K. Morokuma, O. Farkas, 
 J. B. Foresman, and D. J. Fox, Gaussian, Inc., Wallingford CT, 2019.
 
 ******************************************
 Gaussian 16:  ES64L-G16RevC.01  3-Jul-2019
                 2-Mar-2023 
 ******************************************
 %nproc=16
 Will use up to   16 processors via shared memory.
 %mem=60GB
 -----------------------------------------------------------
 # B3LYP/genecp em=GD3BJ int=fine scrf=(smd,solvent=acetone)
 -----------------------------------------------------------
 1/38=1,172=1/1;
 2/12=2,17=6,18=5,40=1/2;
 3/5=7,11=2,16=1,17=8,25=1,30=1,70=32201,72=19,74=-5,75=-4,124=41/1,2,3;
 4//1;
 5/5=2,38=5,53=19/2;
 6/7=2,8=2,9=2,10=2,28=1/1;
 99/5=1,9=1/99;
 --------
 Template
 --------
 Symbolic Z-matrix:
 Charge =  0 Multiplicity = 1
 Co                   -1.24216  -0.05061  -0.55997 
 N                    -2.79335   1.00288  -0.4793 
 O                    -3.2776    1.8025   -1.47179 
 C                    -3.45495   0.91514   0.62964 
 C                    -4.73659   1.62923   0.89294 
 H                    -5.09678   2.08303  -0.0266 
 H                    -4.57564   2.41108   1.63348 
 H                    -5.48224   0.94051   1.2829 
 N                    -1.69318  -0.44006   1.23185 
 O                    -0.99077  -1.19809   2.01489 
 C                    -2.82396   0.07886   1.62179 
 C                    -3.40913  -0.14416   2.97989 
 H                    -3.55886   0.80359   3.49313 
 H                    -2.72159  -0.76109   3.555 
 H                    -4.36877  -0.65391   2.90908 
 N                     0.12432  -1.33752  -0.71178 
 O                     0.66784  -2.06018   0.30769 
 C                     0.52364  -1.56552  -1.92119 
 C                     1.55075  -2.58298  -2.28392 
 H                     1.95703  -3.0278   -1.37946 
 H                     2.35154  -2.11869  -2.85473 
 H                     1.1049   -3.36234  -2.89996 
 N                    -0.95776   0.1281   -2.41361 
 O                    -1.59829   0.96497  -3.16996 
 C                    -0.10709  -0.72594  -2.91109 
 C                     0.20802  -0.82127  -4.36998 
 H                     0.00057  -1.82187  -4.74486 
 H                     1.25732  -0.59619  -4.55267 
 H                    -0.40905  -0.10207  -4.90496 
 H                    -2.6599    1.60424  -2.28072 
 H                     0.10098  -1.79066   1.13161 
 C                    -0.10876   1.55799  -0.07386 
 H                    -0.26353   2.2391   -0.90997 
 H                    -0.5761    1.92763   0.83866 
 C                     1.28373   1.19981   0.11521 
 C                     1.69932   0.76517   1.33423 
 H                     0.93147   0.62093   2.08417 
 C                     2.18947   1.33714  -1.07499 
 H                     1.61879   1.20371  -1.99006 
 H                     2.62241   2.33659  -1.09944 
 H                     2.99414   0.60798  -1.04385 
 C                     3.02436   0.3856    1.77682 
 C                     3.12596  -0.58436   2.7833 
 C                     4.20584   0.95709   1.29408 
 C                     4.35606  -1.00188   3.24845 
 H                     2.22183  -1.02247   3.17956 
 C                     5.43571   0.54826   1.77589 
 H                     4.16209   1.75582   0.57292 
 C                     5.51947  -0.4398    2.74351 
 H                     4.41179  -1.76266   4.0137 
 H                     6.3373    1.00727   1.39635 
 H                     6.48271  -0.76071   3.11196 
 
 Stoichiometry    C18H25CoN4O4
 Framework group  C1[X(C18H25CoN4O4)]
 Deg. of freedom   150
 Full point group                 C1      NOp   1
 Largest Abelian subgroup         C1      NOp   1
 Largest concise Abelian subgroup C1      NOp   1
                         Standard orientation:                         
 ---------------------------------------------------------------------
 Center     Atomic      Atomic             Coordinates (Angstroms)
 Number     Number       Type             X           Y           Z
 ---------------------------------------------------------------------
      1         27           0        1.374107    0.166652    0.189975
      2          7           0        2.931260   -0.515650   -0.605190
      3          8           0        3.787853    0.167124   -1.416976
      4          6           0        3.199699   -1.746878   -0.309932
      5          6           0        4.407294   -2.474552   -0.793721
      6          1           0        5.085071   -1.775620   -1.276772
      7          1           0        4.112773   -3.236261   -1.513897
      8          1           0        4.911408   -2.967046    0.034365
      9          7           0        1.196884   -1.605392    0.817793
     10          8           0        0.204484   -2.031573    1.535186
     11          6           0        2.200635   -2.380820    0.515822
     12          6           0        2.304006   -3.805967    0.957266
     13          1           0        2.392185   -4.467947    0.098151
     14          1           0        1.406400   -4.059808    1.517563
     15          1           0        3.173885   -3.951356    1.595967
     16          7           0       -0.012945    0.894265    1.235491
     17          8           0       -0.925178    0.192737    1.965324
     18          6           0       -0.038255    2.187114    1.280328
     19          6           0       -1.008964    2.975986    2.090991
     20          1           0       -1.724503    2.303672    2.556784
     21          1           0       -1.534023    3.687109    1.457529
     22          1           0       -0.484200    3.535475    2.863831
     23          7           0        1.704019    1.977369   -0.211599
     24          8           0        2.638611    2.385581   -1.013224
     25          6           0        0.960233    2.818542    0.451519
     26          6           0        1.107138    4.303675    0.353879
     27          1           0        1.306810    4.736724    1.332330
     28          1           0        0.199592    4.754979   -0.043314
     29          1           0        1.937282    4.526102   -0.313657
     30          1           0        3.434994    1.141911   -1.394673
     31          1           0       -0.616914   -0.791175    1.866763
     32          6           0        0.334814   -0.182919   -1.514775
     33          1           0        0.818433    0.466066   -2.244075
     34          1           0        0.532870   -1.235150   -1.718040
     35          6           0       -1.078248    0.100204   -1.353090
     36          6           0       -1.899523   -0.868047   -0.867651
     37          1           0       -1.425264   -1.783523   -0.536287
     38          6           0       -1.546074    1.473448   -1.741861
     39          1           0       -0.737400    2.188161   -1.615172
     40          1           0       -1.834088    1.484587   -2.792508
     41          1           0       -2.397216    1.783996   -1.142471
     42          6           0       -3.330425   -0.841437   -0.649757
     43          6           0       -3.849618   -1.626694    0.388500
     44          6           0       -4.230005   -0.116022   -1.437199
     45          6           0       -5.202277   -1.644165    0.660227
     46          1           0       -3.169669   -2.207085    0.994499
     47          6           0       -5.586666   -0.150510   -1.172338
     48          1           0       -3.873695    0.440692   -2.287528
     49          6           0       -6.078944   -0.901790   -0.117437
     50          1           0       -5.579360   -2.244304    1.475782
     51          1           0       -6.267071    0.410393   -1.796867
     52          1           0       -7.138797   -0.920288    0.089821
 ---------------------------------------------------------------------
 Rotational constants (GHZ):           0.2637017           0.1370437           0.1097248
 General basis read from cards:  (5D, 7F)
 ======================================================================================================
                                       Pseudopotential Parameters
 ======================================================================================================
  Center     Atomic      Valence      Angular      Power
  Number     Number     Electrons     Momentum     of R      Exponent        Coefficient   SO-Coeffient
 ======================================================================================================
    1         27           17
                                      D and up 
                                                     1      434.1076104      -10.00000000    0.00000000
                                                     2       78.8402758      -66.72402760    0.00000000
                                                     2       19.6037749      -11.71922430    0.00000000
                                      S - D
                                                     0      151.2307582        3.00000000    0.00000000
                                                     1      169.6790026       20.15531100    0.00000000
                                                     2       64.9909423      413.37622440    0.00000000
                                                     2       12.5076287      133.87277050    0.00000000
                                      P - D
                                                     0       92.7319924        5.00000000    0.00000000
                                                     1      121.1910183        6.18923530    0.00000000
                                                     2       48.6265909      326.32159190    0.00000000
                                                     2       11.9966971       73.87889700    0.00000000
    2          7
                                   No pseudopotential on this center.
    3          8
                                   No pseudopotential on this center.
    4          6
                                   No pseudopotential on this center.
    5          6
                                   No pseudopotential on this center.
    6          1
                                   No pseudopotential on this center.
    7          1
                                   No pseudopotential on this center.
    8          1
                                   No pseudopotential on this center.
    9          7
                                   No pseudopotential on this center.
   10          8
                                   No pseudopotential on this center.
   11          6
                                   No pseudopotential on this center.
   12          6
                                   No pseudopotential on this center.
   13          1
                                   No pseudopotential on this center.
   14          1
                                   No pseudopotential on this center.
   15          1
                                   No pseudopotential on this center.
   16          7
                                   No pseudopotential on this center.
   17          8
                                   No pseudopotential on this center.
   18          6
                                   No pseudopotential on this center.
   19          6
                                   No pseudopotential on this center.
   20          1
                                   No pseudopotential on this center.
   21          1
                                   No pseudopotential on this center.
   22          1
                                   No pseudopotential on this center.
   23          7
                                   No pseudopotential on this center.
   24          8
                                   No pseudopotential on this center.
   25          6
                                   No pseudopotential on this center.
   26          6
                                   No pseudopotential on this center.
   27          1
                                   No pseudopotential on this center.
   28          1
                                   No pseudopotential on this center.
   29          1
                                   No pseudopotential on this center.
   30          1
                                   No pseudopotential on this center.
   31          1
                                   No pseudopotential on this center.
   32          6
                                   No pseudopotential on this center.
   33          1
                                   No pseudopotential on this center.
   34          1
                                   No pseudopotential on this center.
   35          6
                                   No pseudopotential on this center.
   36          6
                                   No pseudopotential on this center.
   37          1
                                   No pseudopotential on this center.
   38          6
                                   No pseudopotential on this center.
   39          1
                                   No pseudopotential on this center.
   40          1
                                   No pseudopotential on this center.
   41          1
                                   No pseudopotential on this center.
   42          6
                                   No pseudopotential on this center.
   43          6
                                   No pseudopotential on this center.
   44          6
                                   No pseudopotential on this center.
   45          6
                                   No pseudopotential on this center.
   46          1
                                   No pseudopotential on this center.
   47          6
                                   No pseudopotential on this center.
   48          1
                                   No pseudopotential on this center.
   49          6
                                   No pseudopotential on this center.
   50          1
                                   No pseudopotential on this center.
   51          1
                                   No pseudopotential on this center.
   52          1
                                   No pseudopotential on this center.
 ======================================================================================================
 There are   464 symmetry adapted cartesian basis functions of A   symmetry.
 There are   436 symmetry adapted basis functions of A   symmetry.
   436 basis functions,   880 primitive gaussians,   464 cartesian basis functions
   105 alpha electrons      105 beta electrons
       nuclear repulsion energy      2998.6864778853 Hartrees.
 NAtoms=   52 NActive=   52 NUniq=   52 SFac= 1.00D+00 NAtFMM=   60 NAOKFM=F Big=F
 Integral buffers will be    131072 words long.
 Raffenetti 2 integral format.
 Two-electron integral symmetry is turned on.
 Nuclear repulsion after empirical dispersion term =     2998.5623304359 Hartrees.
 ------------------------------------------------------------------------------
 Polarizable Continuum Model (PCM)
 =================================
 Model                : PCM.
 Atomic radii         : SMD-Coulomb.
 Polarization charges : Total charges.
 Charge compensation  : None.
 Solution method      : On-the-fly selection.
 Cavity type          : VdW (van der Waals Surface) (Alpha=1.000).
 Cavity algorithm     : GePol (No added spheres)
                        Default sphere list used, NSphG=   52.
                        Lebedev-Laikov grids with approx.  5.0 points / Ang**2.
                        Smoothing algorithm: York/Karplus (Gamma=1.0000).
                        Polarization charges: spherical gaussians, with
                                              point-specific exponents (IZeta= 3).
                        Self-potential: point-specific (ISelfS= 7).
                        Self-field    : sphere-specific E.n sum rule (ISelfD= 2).
 Solvent              : Acetone, Eps=  20.493000 Eps(inf)=   1.846337
 ------------------------------------------------------------------------------
 ------------------------------------------------------------------------------
 Atomic radii for non-electrostatic terms: SMD-CDS.
 ------------------------------------------------------------------------------
 Nuclear repulsion after PCM non-electrostatic terms =     2998.5559023052 Hartrees.
 One-electron integrals computed using PRISM.
   1 Symmetry operations used in ECPInt.
 ECPInt:  NShTT=   13203 NPrTT=   81964 LenC2=   11346 LenP2D=   39266.
 LDataN:  DoStor=T MaxTD1= 4 Len=   56
 NBasis=   436 RedAO= T EigKep=  4.36D-04  NBF=   436
 NBsUse=   436 1.00D-06 EigRej= -1.00D+00 NBFU=   436
 ExpMin= 2.30D-02 ExpMax= 5.48D+03 ExpMxC= 8.25D+02 IAcc=3 IRadAn=         5 AccDes= 0.00D+00
 Harris functional with IExCor=  402 and IRadAn=       5 diagonalized for initial guess.
 HarFok:  IExCor=  402 AccDes= 0.00D+00 IRadAn=         5 IDoV= 1 UseB2=F ITyADJ=14
 ICtDFT=  3500011 ScaDFX=  1.000000  1.000000  1.000000  1.000000
 FoFCou: FMM=F IPFlag=           0 FMFlag=      100000 FMFlg1=           0
         NFxFlg=           0 DoJE=T BraDBF=F KetDBF=T FulRan=T
         wScrn=  0.000000 ICntrl=       500 IOpCl=  0 I1Cent=   200000004 NGrid=           0
         NMat0=    1 NMatS0=      1 NMatT0=    0 NMatD0=    1 NMtDS0=    0 NMtDT0=    0
 Petite list used in FoFCou.
 Requested convergence on RMS density matrix=1.00D-08 within 128 cycles.
 Requested convergence on MAX density matrix=1.00D-06.
 Requested convergence on             energy=1.00D-06.
 No special actions if energy rises.
 Inv3:  Mode=1 IEnd=    40649283.
 Iteration    1 A*A^-1 deviation from unit magnitude is 3.11D-15 for   2572.
 Iteration    1 A*A^-1 deviation from orthogonality  is 2.89D-15 for   3290   2772.
 Iteration    1 A^-1*A deviation from unit magnitude is 3.22D-15 for   1873.
 Iteration    1 A^-1*A deviation from orthogonality  is 1.03D-12 for   3480   3364.
 EnCoef did     5 forward-backward iterations
 Restarting incremental Fock formation.
 Error on total polarization charges =  0.04594
 SCF Done:  E(RB3LYP) =  -1365.93259523     A.U. after   21 cycles
            NFock= 21  Conv=0.33D-08     -V/T= 2.0505
 SMD-CDS (non-electrostatic) energy       (kcal/mol) =      -4.03
 (included in total energy above)

 **********************************************************************

            Population analysis using the SCF Density.

 **********************************************************************

 Orbital symmetries:
       Occupied  (A) (A) (A) (A) (A) (A) (A) (A) (A) (A) (A) (A)
                 (A) (A) (A) (A) (A) (A) (A) (A) (A) (A) (A) (A)
                 (A) (A) (A) (A) (A) (A) (A) (A) (A) (A) (A) (A)
                 (A) (A) (A) (A) (A) (A) (A) (A) (A) (A) (A) (A)
                 (A) (A) (A) (A) (A) (A) (A) (A) (A) (A) (A) (A)
                 (A) (A) (A) (A) (A) (A) (A) (A) (A) (A) (A) (A)
                 (A) (A) (A) (A) (A) (A) (A) (A) (A) (A) (A) (A)
                 (A) (A) (A) (A) (A) (A) (A) (A) (A) (A) (A) (A)
                 (A) (A) (A) (A) (A) (A) (A) (A) (A)
       Virtual   (A) (A) (A) (A) (A) (A) (A) (A) (A) (A) (A) (A)
                 (A) (A) (A) (A) (A) (A) (A) (A) (A) (A) (A) (A)
                 (A) (A) (A) (A) (A) (A) (A) (A) (A) (A) (A) (A)
                 (A) (A) (A) (A) (A) (A) (A) (A) (A) (A) (A) (A)
                 (A) (A) (A) (A) (A) (A) (A) (A) (A) (A) (A) (A)
                 (A) (A) (A) (A) (A) (A) (A) (A) (A) (A) (A) (A)
                 (A) (A) (A) (A) (A) (A) (A) (A) (A) (A) (A) (A)
                 (A) (A) (A) (A) (A) (A) (A) (A) (A) (A) (A) (A)
                 (A) (A) (A) (A) (A) (A) (A) (A) (A) (A) (A) (A)
                 (A) (A) (A) (A) (A) (A) (A) (A) (A) (A) (A) (A)
                 (A) (A) (A) (A) (A) (A) (A) (A) (A) (A) (A) (A)
                 (A) (A) (A) (A) (A) (A) (A) (A) (A) (A) (A) (A)
                 (A) (A) (A) (A) (A) (A) (A) (A) (A) (A) (A) (A)
                 (A) (A) (A) (A) (A) (A) (A) (A) (A) (A) (A) (A)
                 (A) (A) (A) (A) (A) (A) (A) (A) (A) (A) (A) (A)
                 (A) (A) (A) (A) (A) (A) (A) (A) (A) (A) (A) (A)
                 (A) (A) (A) (A) (A) (A) (A) (A) (A) (A) (A) (A)
                 (A) (A) (A) (A) (A) (A) (A) (A) (A) (A) (A) (A)
                 (A) (A) (A) (A) (A) (A) (A) (A) (A) (A) (A) (A)
                 (A) (A) (A) (A) (A) (A) (A) (A) (A) (A) (A) (A)
                 (A) (A) (A) (A) (A) (A) (A) (A) (A) (A) (A) (A)
                 (A) (A) (A) (A) (A) (A) (A) (A) (A) (A) (A) (A)
                 (A) (A) (A) (A) (A) (A) (A) (A) (A) (A) (A) (A)
                 (A) (A) (A) (A) (A) (A) (A) (A) (A) (A) (A) (A)
                 (A) (A) (A) (A) (A) (A) (A) (A) (A) (A) (A) (A)
                 (A) (A) (A) (A) (A) (A) (A) (A) (A) (A) (A) (A)
                 (A) (A) (A) (A) (A) (A) (A) (A) (A) (A) (A) (A)
                 (A) (A) (A) (A) (A) (A) (A)
 The electronic state is 1-A.
 Alpha  occ. eigenvalues --  -19.16619 -19.16371 -19.12701 -19.12661 -14.40950
 Alpha  occ. eigenvalues --  -14.40929 -14.40590 -14.40400 -10.23595 -10.23525
 Alpha  occ. eigenvalues --  -10.21392 -10.21334 -10.18520 -10.18437 -10.17532
 Alpha  occ. eigenvalues --  -10.17502 -10.17462 -10.17447 -10.17429 -10.17414
 Alpha  occ. eigenvalues --  -10.17393 -10.17384 -10.16913 -10.16819 -10.16809
 Alpha  occ. eigenvalues --  -10.15860  -3.74371  -2.44400  -2.43612  -2.42521
 Alpha  occ. eigenvalues --   -1.09033  -1.08478  -1.06859  -1.06315  -0.90576
 Alpha  occ. eigenvalues --   -0.89371  -0.85753  -0.81897  -0.80933  -0.80566
 Alpha  occ. eigenvalues --   -0.75320  -0.74634  -0.74190  -0.74177  -0.70642
 Alpha  occ. eigenvalues --   -0.70518  -0.68469  -0.66369  -0.62292  -0.60287
 Alpha  occ. eigenvalues --   -0.60056  -0.58775  -0.54889  -0.53516  -0.52944
 Alpha  occ. eigenvalues --   -0.52063  -0.51267  -0.50833  -0.49466  -0.48963
 Alpha  occ. eigenvalues --   -0.47600  -0.47022  -0.46608  -0.46072  -0.45290
 Alpha  occ. eigenvalues --   -0.44462  -0.43399  -0.42655  -0.42294  -0.42202
 Alpha  occ. eigenvalues --   -0.42008  -0.41819  -0.41523  -0.40992  -0.40547
 Alpha  occ. eigenvalues --   -0.39979  -0.39611  -0.39316  -0.38796  -0.38177
 Alpha  occ. eigenvalues --   -0.38130  -0.38044  -0.37604  -0.37364  -0.36812
 Alpha  occ. eigenvalues --   -0.36554  -0.34948  -0.34288  -0.34234  -0.33136
 Alpha  occ. eigenvalues --   -0.32897  -0.30882  -0.30528  -0.28225  -0.27981
 Alpha  occ. eigenvalues --   -0.27705  -0.26544  -0.26208  -0.25062  -0.24995
 Alpha  occ. eigenvalues --   -0.24919  -0.22341  -0.20085  -0.19716  -0.19525
 Alpha virt. eigenvalues --   -0.09160  -0.03717  -0.03313  -0.00409   0.00293
 Alpha virt. eigenvalues --    0.00493   0.02585   0.02779   0.03374   0.06092
 Alpha virt. eigenvalues --    0.06712   0.06814   0.07873   0.11068   0.12317
 Alpha virt. eigenvalues --    0.12746   0.13654   0.14345   0.14773   0.15032
 Alpha virt. eigenvalues --    0.15281   0.15870   0.16464   0.16840   0.17037
 Alpha virt. eigenvalues --    0.17498   0.17884   0.18318   0.18585   0.18907
 Alpha virt. eigenvalues --    0.19263   0.19595   0.19978   0.20156   0.21677
 Alpha virt. eigenvalues --    0.21947   0.22528   0.23095   0.23922   0.24728
 Alpha virt. eigenvalues --    0.24985   0.25405   0.25693   0.26034   0.26891
 Alpha virt. eigenvalues --    0.27139   0.28369   0.28800   0.29529   0.30214
 Alpha virt. eigenvalues --    0.31118   0.31806   0.32336   0.33194   0.34552
 Alpha virt. eigenvalues --    0.35356   0.36214   0.36613   0.40504   0.41321
 Alpha virt. eigenvalues --    0.42104   0.42754   0.42825   0.44753   0.46873
 Alpha virt. eigenvalues --    0.48300   0.51028   0.51291   0.52011   0.52885
 Alpha virt. eigenvalues --    0.53582   0.54219   0.54784   0.55699   0.56063
 Alpha virt. eigenvalues --    0.56475   0.57436   0.57958   0.58471   0.58712
 Alpha virt. eigenvalues --    0.59044   0.59874   0.60058   0.60469   0.60768
 Alpha virt. eigenvalues --    0.61609   0.61677   0.62431   0.62886   0.63570
 Alpha virt. eigenvalues --    0.64489   0.65017   0.65614   0.66804   0.67307
 Alpha virt. eigenvalues --    0.68460   0.68802   0.69331   0.70180   0.70387
 Alpha virt. eigenvalues --    0.71697   0.72342   0.73179   0.74467   0.75216
 Alpha virt. eigenvalues --    0.75442   0.75985   0.76528   0.76893   0.78131
 Alpha virt. eigenvalues --    0.79097   0.80520   0.81810   0.82139   0.82791
 Alpha virt. eigenvalues --    0.83670   0.84256   0.84722   0.85254   0.85366
 Alpha virt. eigenvalues --    0.85796   0.86206   0.86286   0.86482   0.87906
 Alpha virt. eigenvalues --    0.88076   0.88893   0.89355   0.90301   0.90725
 Alpha virt. eigenvalues --    0.90959   0.91326   0.91685   0.91833   0.92434
 Alpha virt. eigenvalues --    0.93298   0.94155   0.94524   0.94800   0.95382
 Alpha virt. eigenvalues --    0.96150   0.96860   0.97030   0.97777   0.98923
 Alpha virt. eigenvalues --    0.99719   1.00265   1.01233   1.02394   1.02925
 Alpha virt. eigenvalues --    1.03559   1.04256   1.04496   1.05310   1.05839
 Alpha virt. eigenvalues --    1.07484   1.07603   1.09890   1.10330   1.10425
 Alpha virt. eigenvalues --    1.10598   1.11991   1.12566   1.15705   1.16271
 Alpha virt. eigenvalues --    1.16542   1.17644   1.20116   1.21120   1.21868
 Alpha virt. eigenvalues --    1.22382   1.24362   1.24613   1.26481   1.27331
 Alpha virt. eigenvalues --    1.28408   1.29173   1.29444   1.30657   1.33091
 Alpha virt. eigenvalues --    1.33576   1.33977   1.34807   1.35706   1.36790
 Alpha virt. eigenvalues --    1.37137   1.38090   1.38892   1.39012   1.39266
 Alpha virt. eigenvalues --    1.39661   1.41934   1.42213   1.43767   1.44704
 Alpha virt. eigenvalues --    1.45008   1.46063   1.46257   1.48632   1.49972
 Alpha virt. eigenvalues --    1.50454   1.51174   1.51943   1.52904   1.53466
 Alpha virt. eigenvalues --    1.54821   1.58047   1.60969   1.61825   1.63148
 Alpha virt. eigenvalues --    1.66570   1.68572   1.70768   1.74134   1.74358
 Alpha virt. eigenvalues --    1.75271   1.76655   1.76973   1.78015   1.78849
 Alpha virt. eigenvalues --    1.78998   1.79675   1.79880   1.81539   1.81602
 Alpha virt. eigenvalues --    1.82558   1.82714   1.83386   1.83665   1.85877
 Alpha virt. eigenvalues --    1.87263   1.88373   1.89543   1.89853   1.90579
 Alpha virt. eigenvalues --    1.91850   1.92475   1.93382   1.94104   1.95131
 Alpha virt. eigenvalues --    1.96064   1.96892   1.98228   1.99034   1.99752
 Alpha virt. eigenvalues --    2.00030   2.00527   2.01520   2.03499   2.06031
 Alpha virt. eigenvalues --    2.06721   2.10037   2.10218   2.11838   2.12374
 Alpha virt. eigenvalues --    2.13663   2.13882   2.14698   2.15173   2.16036
 Alpha virt. eigenvalues --    2.16905   2.17914   2.19549   2.20239   2.20703
 Alpha virt. eigenvalues --    2.21691   2.23871   2.24618   2.27079   2.28163
 Alpha virt. eigenvalues --    2.28529   2.29544   2.30129   2.31053   2.32104
 Alpha virt. eigenvalues --    2.32948   2.33270   2.33794   2.33854   2.34293
 Alpha virt. eigenvalues --    2.34449   2.35741   2.36615   2.37611   2.39403
 Alpha virt. eigenvalues --    2.40115   2.44646   2.45269   2.45683   2.51339
 Alpha virt. eigenvalues --    2.51931   2.53049   2.53231   2.54662   2.55870
 Alpha virt. eigenvalues --    2.56910   2.57800   2.57995   2.60037   2.60727
 Alpha virt. eigenvalues --    2.64360   2.64595   2.65069   2.65916   2.66219
 Alpha virt. eigenvalues --    2.67847   2.68824   2.71015   2.74646   2.75750
 Alpha virt. eigenvalues --    2.76554   2.77725   2.78607   2.82068   2.85465
 Alpha virt. eigenvalues --    2.87289   2.90820   2.91786   2.93321   2.96789
 Alpha virt. eigenvalues --    3.03293   3.05405   3.06155   3.08386   3.10421
 Alpha virt. eigenvalues --    3.12343   3.21703   3.29671   3.32485   3.46560
 Alpha virt. eigenvalues --   21.74998
          Condensed to atoms (all electrons):
 Mulliken charges:
               1
     1  Co   0.313738
     2  N   -0.159462
     3  O   -0.573004
     4  C    0.323611
     5  C   -0.546082
     6  H    0.200193
     7  H    0.204590
     8  H    0.198930
     9  N   -0.077642
    10  O   -0.554846
    11  C    0.270188
    12  C   -0.548020
    13  H    0.187290
    14  H    0.190464
    15  H    0.189029
    16  N   -0.177783
    17  O   -0.568243
    18  C    0.330291
    19  C   -0.547887
    20  H    0.201403
    21  H    0.200124
    22  H    0.202290
    23  N   -0.075793
    24  O   -0.558594
    25  C    0.269060
    26  C   -0.549330
    27  H    0.187104
    28  H    0.188575
    29  H    0.190623
    30  H    0.470285
    31  H    0.475074
    32  C   -0.405358
    33  H    0.191187
    34  H    0.191792
    35  C    0.236618
    36  C   -0.253578
    37  H    0.155625
    38  C   -0.556388
    39  H    0.179239
    40  H    0.181009
    41  H    0.170823
    42  C    0.151291
    43  C   -0.203938
    44  C   -0.201961
    45  C   -0.155070
    46  H    0.154841
    47  C   -0.158268
    48  H    0.159297
    49  C   -0.151805
    50  H    0.153139
    51  H    0.152789
    52  H    0.152543
 Sum of Mulliken charges =  -0.00000
 Mulliken charges with hydrogens summed into heavy atoms:
               1
     1  Co   0.313738
     2  N   -0.159462
     3  O   -0.102719
     4  C    0.323611
     5  C    0.057631
     9  N   -0.077642
    10  O   -0.554846
    11  C    0.270188
    12  C    0.018763
    16  N   -0.177783
    17  O   -0.093169
    18  C    0.330291
    19  C    0.055931
    23  N   -0.075793
    24  O   -0.558594
    25  C    0.269060
    26  C    0.016972
    32  C   -0.022379
    35  C    0.236618
    36  C   -0.097954
    38  C   -0.025319
    42  C    0.151291
    43  C   -0.049097
    44  C   -0.042664
    45  C   -0.001932
    47  C   -0.005480
    49  C    0.000738
 Electronic spatial extent (au):  <R**2>=          10321.1373
 Charge=             -0.0000 electrons
 Dipole moment (field-independent basis, Debye):
    X=              0.0531    Y=              0.3189    Z=              0.7998  Tot=              0.8627
 Quadrupole moment (field-independent basis, Debye-Ang):
   XX=           -158.0599   YY=           -146.7784   ZZ=           -166.9483
   XY=            -21.3803   XZ=              7.6806   YZ=              7.8315
 Traceless Quadrupole moment (field-independent basis, Debye-Ang):
   XX=             -0.7977   YY=             10.4838   ZZ=             -9.6861
   XY=            -21.3803   XZ=              7.6806   YZ=              7.8315
 Octapole moment (field-independent basis, Debye-Ang**2):
  XXX=             11.9798  YYY=             23.8218  ZZZ=              9.5039  XYY=             50.1078
  XXY=            -61.8829  XXZ=             28.2013  XZZ=             14.4568  YZZ=             18.2311
  YYZ=             31.0347  XYZ=             29.4756
 Hexadecapole moment (field-independent basis, Debye-Ang**3):
 XXXX=          -7665.5742 YYYY=          -3691.0490 ZZZZ=          -1454.1330 XXXY=           -217.9549
 XXXZ=             25.9901 YYYX=           -177.9157 YYYZ=             89.6873 ZZZX=             -9.0263
 ZZZY=              2.2201 XXYY=          -1955.0083 XXZZ=          -1615.2767 YYZZ=           -869.2269
 XXYZ=            -82.0291 YYXZ=            -29.0010 ZZXY=            -25.3682
 N-N= 2.998555902305D+03 E-N=-9.188755115479D+03  KE= 1.300228072646D+03
 Unable to Open any file for archive entry.
 1\1\GINC-N204\SP\RB3LYP\GenECP\C18H25Co1N4O4\CJD\02-Mar-2023\0\\# B3LY
 P/genecp em=GD3BJ int=fine scrf=(smd,solvent=acetone)\\Template\\0,1\C
 o,0,-1.2421587546,-0.0506130305,-0.5599710129\N,0,-2.7933520603,1.0028
 773007,-0.4793004659\O,0,-3.2776002543,1.8024994692,-1.4717912657\C,0,
 -3.4549486937,0.9151379587,0.6296398983\C,0,-4.7365867551,1.6292295999
 ,0.8929378331\H,0,-5.0967783723,2.0830318455,-0.0266000891\H,0,-4.5756
 444561,2.4110810842,1.6334799743\H,0,-5.4822391401,0.9405075032,1.2829
 002292\N,0,-1.6931788997,-0.4400603223,1.2318482859\O,0,-0.990768237,-
 1.1980865091,2.0148901879\C,0,-2.8239573704,0.0788573176,1.6217925366\
 C,0,-3.4091286786,-0.144160555,2.9798940573\H,0,-3.5588607114,0.803593
 4871,3.493132576\H,0,-2.7215852977,-0.7610858137,3.5550042179\H,0,-4.3
 68769083,-0.6539078105,2.9090848768\N,0,0.1243200634,-1.3375182839,-0.
 7117849046\O,0,0.6678350817,-2.0601768947,0.3076868229\C,0,0.523639355
 7,-1.565515703,-1.9211936625\C,0,1.5507510277,-2.582983845,-2.28391866
 25\H,0,1.9570317993,-3.0277992381,-1.3794629893\H,0,2.351536195,-2.118
 6904311,-2.854734807\H,0,1.1049002244,-3.3623376116,-2.8999641476\N,0,
 -0.9577635774,0.1280976157,-2.4136109324\O,0,-1.598288246,0.9649745038
 ,-3.1699629825\C,0,-0.1070923455,-0.7259430268,-2.911092465\C,0,0.2080
 172404,-0.8212745143,-4.369979583\H,0,0.000574868,-1.8218736823,-4.744
 8619784\H,0,1.2573203289,-0.5961851078,-4.5526651866\H,0,-0.4090479352
 ,-0.1020749178,-4.9049553594\H,0,-2.6599045514,1.6042365065,-2.2807168
 38\H,0,0.1009770205,-1.7906555769,1.1316125586\C,0,-0.1087556724,1.557
 9877949,-0.0738603056\H,0,-0.2635259439,2.2391036579,-0.9099664929\H,0
 ,-0.5760992699,1.9276337327,0.8386553816\C,0,1.2837263789,1.1998069819
 ,0.1152072064\C,0,1.6993232144,0.7651711913,1.3342337033\H,0,0.9314661
 943,0.6209305734,2.0841738271\C,0,2.1894654253,1.337143388,-1.07499291
 02\H,0,1.6187909891,1.2037126594,-1.9900586887\H,0,2.6224105189,2.3365
 914364,-1.0994438022\H,0,2.9941375686,0.6079767936,-1.0438534054\C,0,3
 .0243568695,0.3856028702,1.7768163987\C,0,3.1259601822,-0.5843648641,2
 .783298232\C,0,4.2058391218,0.9570943205,1.2940818506\C,0,4.3560563733
 ,-1.0018844864,3.248452703\H,0,2.2218252309,-1.0224684736,3.1795613935
 \C,0,5.4357125559,0.5482602581,1.7758883484\H,0,4.1620906677,1.7558178
 14,0.5729201175\C,0,5.5194660763,-0.4398003609,2.743512106\H,0,4.41179
 27251,-1.762664402,4.0136950719\H,0,6.3373024074,1.0072686094,1.396352
 9584\H,0,6.4827149507,-0.7607105326,3.1119631046\\Version=ES64L-G16Rev
 C.01\State=1-A\HF=-1365.9325952\RMSD=3.334e-09\Dipole=-0.0299198,-0.32
 47351,-0.0940194\Quadrupole=9.9588246,-5.9846495,-3.9741752,-0.3227435
 ,-14.2180274,9.9003194\PG=C01 [X(C18H25Co1N4O4)]\\@
 The archive entry for this job was punched.


 A HARD FALL SHOULD MEAN A HIGH BOUNCE 
 IF ONE IS MADE OF THE RIGHT MATERIAL.

                -- THE CHEMIST ANALYST, MARCH 1950
 Job cpu time:       0 days  0 hours 21 minutes 38.7 seconds.
 Elapsed time:       0 days  0 hours  1 minutes 23.3 seconds.
 File lengths (MBytes):  RWF=    330 Int=      0 D2E=      0 Chk=     14 Scr=      1
 Normal termination of Gaussian 16 at Thu Mar  2 08:38:52 2023.
