 Entering Gaussian System, Link 0=g16
 Initial command:
 /opt/local/g16/l1.exe "/data/tmp/cjd/Gau-61124.inp" -scrdir="/data/tmp/cjd/"
 Entering Link 1 = /opt/local/g16/l1.exe PID=     61125.
  
 Copyright (c) 1988-2019, Gaussian, Inc.  All Rights Reserved.
  
 This is part of the Gaussian(R) 16 program.  It is based on
 the Gaussian(R) 09 system (copyright 2009, Gaussian, Inc.),
 the Gaussian(R) 03 system (copyright 2003, Gaussian, Inc.),
 the Gaussian(R) 98 system (copyright 1998, Gaussian, Inc.),
 the Gaussian(R) 94 system (copyright 1995, Gaussian, Inc.),
 the Gaussian 92(TM) system (copyright 1992, Gaussian, Inc.),
 the Gaussian 90(TM) system (copyright 1990, Gaussian, Inc.),
 the Gaussian 88(TM) system (copyright 1988, Gaussian, Inc.),
 the Gaussian 86(TM) system (copyright 1986, Carnegie Mellon
 University), and the Gaussian 82(TM) system (copyright 1983,
 Carnegie Mellon University). Gaussian is a federally registered
 trademark of Gaussian, Inc.
  
 This software contains proprietary and confidential information,
 including trade secrets, belonging to Gaussian, Inc.
  
 This software is provided under written license and may be
 used, copied, transmitted, or stored only in accord with that
 written license.
  
 The following legend is applicable only to US Government
 contracts under FAR:
  
                    RESTRICTED RIGHTS LEGEND
  
 Use, reproduction and disclosure by the US Government is
 subject to restrictions as set forth in subparagraphs (a)
 and (c) of the Commercial Computer Software - Restricted
 Rights clause in FAR 52.227-19.
  
 Gaussian, Inc.
 340 Quinnipiac St., Bldg. 40, Wallingford CT 06492
  
  
 ---------------------------------------------------------------
 Warning -- This program may not be used in any manner that
 competes with the business of Gaussian, Inc. or will provide
 assistance to any competitor of Gaussian, Inc.  The licensee
 of this program is prohibited from giving any competitor of
 Gaussian, Inc. access to this program.  By using this program,
 the user acknowledges that Gaussian, Inc. is engaged in the
 business of creating and licensing software in the field of
 computational chemistry and represents and warrants to the
 licensee that it is not a competitor of Gaussian, Inc. and that
 it will not use this program in any manner prohibited above.
 ---------------------------------------------------------------
  

 Cite this work as:
 Gaussian 16, Revision C.01,
 M. J. Frisch, G. W. Trucks, H. B. Schlegel, G. E. Scuseria, 
 M. A. Robb, J. R. Cheeseman, G. Scalmani, V. Barone, 
 G. A. Petersson, H. Nakatsuji, X. Li, M. Caricato, A. V. Marenich, 
 J. Bloino, B. G. Janesko, R. Gomperts, B. Mennucci, H. P. Hratchian, 
 J. V. Ortiz, A. F. Izmaylov, J. L. Sonnenberg, D. Williams-Young, 
 F. Ding, F. Lipparini, F. Egidi, J. Goings, B. Peng, A. Petrone, 
 T. Henderson, D. Ranasinghe, V. G. Zakrzewski, J. Gao, N. Rega, 
 G. Zheng, W. Liang, M. Hada, M. Ehara, K. Toyota, R. Fukuda, 
 J. Hasegawa, M. Ishida, T. Nakajima, Y. Honda, O. Kitao, H. Nakai, 
 T. Vreven, K. Throssell, J. A. Montgomery, Jr., J. E. Peralta, 
 F. Ogliaro, M. J. Bearpark, J. J. Heyd, E. N. Brothers, K. N. Kudin, 
 V. N. Staroverov, T. A. Keith, R. Kobayashi, J. Normand, 
 K. Raghavachari, A. P. Rendell, J. C. Burant, S. S. Iyengar, 
 J. Tomasi, M. Cossi, J. M. Millam, M. Klene, C. Adamo, R. Cammi, 
 J. W. Ochterski, R. L. Martin, K. Morokuma, O. Farkas, 
 J. B. Foresman, and D. J. Fox, Gaussian, Inc., Wallingford CT, 2019.
 
 ******************************************
 Gaussian 16:  ES64L-G16RevC.01  3-Jul-2019
                 2-Mar-2023 
 ******************************************
 %nproc=16
 Will use up to   16 processors via shared memory.
 %mem=60GB
 -----------------------------------------------------------
 # B3LYP/genecp em=GD3BJ int=fine scrf=(smd,solvent=acetone)
 -----------------------------------------------------------
 1/38=1,172=1/1;
 2/12=2,17=6,18=5,40=1/2;
 3/5=7,11=2,16=1,17=8,25=1,30=1,70=32201,72=19,74=-5,75=-4,124=41/1,2,3;
 4//1;
 5/5=2,38=5,53=19/2;
 6/7=2,8=2,9=2,10=2,28=1/1;
 99/5=1,9=1/99;
 --------
 Template
 --------
 Symbolic Z-matrix:
 Charge =  0 Multiplicity = 1
 Co                   -1.32637  -0.20242  -0.24211 
 N                    -2.46064   1.27696  -0.45135 
 O                    -2.17967   2.42029  -1.13967 
 C                    -3.62247   1.1546    0.10742 
 C                    -4.69463   2.18725   0.03378 
 H                    -4.83043   2.64626   1.01183 
 H                    -5.63786   1.73399  -0.26168 
 H                    -4.41302   2.95603  -0.68115 
 N                    -2.73136  -0.83882   0.83213 
 O                    -2.70675  -1.97598   1.44853 
 C                    -3.78817  -0.0752    0.842 
 C                    -5.05006  -0.42382   1.56441 
 H                    -5.87615  -0.5457    0.86531 
 H                    -5.31171   0.35643   2.27604 
 H                    -4.89517  -1.36037   2.09619 
 N                    -0.30941  -1.78567  -0.23904 
 O                    -0.47802  -2.85005   0.60042 
 C                     0.61941  -1.84305  -1.1381 
 C                     1.52102  -3.01345  -1.33244 
 H                     1.53184  -3.31435  -2.37756 
 H                     1.18471  -3.8413   -0.71368 
 H                     2.53665  -2.74474  -1.0463 
 N                    -0.08005   0.30529  -1.57347 
 O                    -0.07351   1.4594   -2.16903 
 C                     0.74181  -0.64282  -1.92693 
 C                     1.74955  -0.49689  -3.02167 
 H                     2.75574  -0.65044  -2.63678 
 H                     1.67021   0.50678  -3.43448 
 H                     1.56769  -1.22156  -3.81392 
 H                    -1.29071   2.20843  -1.62721 
 H                    -1.37182  -2.65205   1.07691 
 C                    -0.416     0.53115   1.41104 
 H                    -1.06304   1.34309   1.74026 
 H                    -0.45058  -0.3128    2.09895 
 C                     0.93492   0.96374   1.1065 
 C                     1.95982   0.08866   1.28458 
 H                     1.70971  -0.87603   1.71034 
 C                     1.12578   2.39051   0.68359 
 H                     0.36464   3.01795   1.14081 
 H                     2.10785   2.75456   0.97209 
 H                     1.02048   2.49064  -0.39589 
 C                     3.37282   0.26905   1.02491 
 C                     4.29301  -0.43619   1.81209 
 C                     3.86955   1.06784  -0.01015 
 C                     5.65162  -0.31102   1.60437 
 H                     3.92549  -1.07319   2.60386 
 C                     5.23079   1.17737  -0.22551 
 H                     3.18494   1.5668   -0.67544 
 C                     6.1282    0.50168   0.58612 
 H                     6.34445  -0.85237   2.2322 
 H                     5.59516   1.7928   -1.03542 
 H                     7.19092   0.59698   0.41944 
 
 Stoichiometry    C18H25CoN4O4
 Framework group  C1[X(C18H25CoN4O4)]
 Deg. of freedom   150
 Full point group                 C1      NOp   1
 Largest Abelian subgroup         C1      NOp   1
 Largest concise Abelian subgroup C1      NOp   1
                         Standard orientation:                         
 ---------------------------------------------------------------------
 Center     Atomic      Atomic             Coordinates (Angstroms)
 Number     Number       Type             X           Y           Z
 ---------------------------------------------------------------------
      1         27           0       -1.349387    0.208273    0.295482
      2          7           0       -2.525444   -1.252891    0.267223
      3          8           0       -2.274073   -2.502633    0.751874
      4          6           0       -3.686572   -1.006315   -0.250502
      5          6           0       -4.788220   -2.006286   -0.338550
      6          1           0       -4.943473   -2.291313   -1.377949
      7          1           0       -5.715852   -1.582556    0.038767
      8          1           0       -4.525006   -2.891364    0.234866
      9          7           0       -2.741572    1.054444   -0.641965
     10          8           0       -2.687253    2.277514   -1.060092
     11          6           0       -3.820468    0.333149   -0.767595
     12          6           0       -5.075941    0.832872   -1.407780
     13          1           0       -5.893782    0.859243   -0.689126
     14          1           0       -5.364823    0.190232   -2.236774
     15          1           0       -4.896786    1.840434   -1.777404
     16          7           0       -0.286258    1.740620    0.545626
     17          8           0       -0.428583    2.934677   -0.102455
     18          6           0        0.649345    1.620815    1.431404
     19          6           0        1.586214    2.716513    1.808521
     20          1           0        1.612304    2.838012    2.889022
     21          1           0        1.270653    3.645257    1.340386
     22          1           0        2.591715    2.471077    1.470418
     23          7           0       -0.110423   -0.549622    1.509633
     24          8           0       -0.134239   -1.786789    1.904048
     25          6           0        0.741164    0.302634    2.007391
     26          6           0        1.750855   -0.052461    3.051286
     27          1           0        2.758756    0.135022    2.686423
     28          1           0        1.644506   -1.108404    3.291577
     29          1           0        1.595284    0.534347    3.955347
     30          1           0       -1.376279   -2.400271    1.258165
     31          1           0       -1.330733    2.844256   -0.595477
     32          6           0       -0.471169   -0.263788   -1.466827
     33          1           0       -1.143862   -0.990792   -1.919867
     34          1           0       -0.485085    0.683933   -2.003759
     35          6           0        0.868254   -0.778894   -1.253612
     36          6           0        1.917384    0.084581   -1.294324
     37          1           0        1.693199    1.113498   -1.550284
     38          6           0        1.019585   -2.261066   -1.076966
     39          1           0        0.237502   -2.781647   -1.624140
     40          1           0        1.988718   -2.599131   -1.432950
     41          1           0        0.917999   -2.537284   -0.028264
     42          6           0        3.326022   -0.176217   -1.083934
     43          6           0        4.261747    0.624644   -1.752368
     44          6           0        3.805333   -1.150425   -0.202275
     45          6           0        5.617331    0.428486   -1.583366
     46          1           0        3.908308    1.395108   -2.422591
     47          6           0        5.164049   -1.332529   -0.023164
     48          1           0        3.110410   -1.734218    0.377848
     49          6           0        6.075983   -0.556057   -0.720382
     50          1           0        6.321940    1.047552   -2.119571
     51          1           0        5.515084   -2.084673    0.668586
     52          1           0        7.136436   -0.707626   -0.583617
 ---------------------------------------------------------------------
 Rotational constants (GHZ):           0.3352856           0.1194132           0.1133781
 General basis read from cards:  (5D, 7F)
 ======================================================================================================
                                       Pseudopotential Parameters
 ======================================================================================================
  Center     Atomic      Valence      Angular      Power
  Number     Number     Electrons     Momentum     of R      Exponent        Coefficient   SO-Coeffient
 ======================================================================================================
    1         27           17
                                      D and up 
                                                     1      434.1076104      -10.00000000    0.00000000
                                                     2       78.8402758      -66.72402760    0.00000000
                                                     2       19.6037749      -11.71922430    0.00000000
                                      S - D
                                                     0      151.2307582        3.00000000    0.00000000
                                                     1      169.6790026       20.15531100    0.00000000
                                                     2       64.9909423      413.37622440    0.00000000
                                                     2       12.5076287      133.87277050    0.00000000
                                      P - D
                                                     0       92.7319924        5.00000000    0.00000000
                                                     1      121.1910183        6.18923530    0.00000000
                                                     2       48.6265909      326.32159190    0.00000000
                                                     2       11.9966971       73.87889700    0.00000000
    2          7
                                   No pseudopotential on this center.
    3          8
                                   No pseudopotential on this center.
    4          6
                                   No pseudopotential on this center.
    5          6
                                   No pseudopotential on this center.
    6          1
                                   No pseudopotential on this center.
    7          1
                                   No pseudopotential on this center.
    8          1
                                   No pseudopotential on this center.
    9          7
                                   No pseudopotential on this center.
   10          8
                                   No pseudopotential on this center.
   11          6
                                   No pseudopotential on this center.
   12          6
                                   No pseudopotential on this center.
   13          1
                                   No pseudopotential on this center.
   14          1
                                   No pseudopotential on this center.
   15          1
                                   No pseudopotential on this center.
   16          7
                                   No pseudopotential on this center.
   17          8
                                   No pseudopotential on this center.
   18          6
                                   No pseudopotential on this center.
   19          6
                                   No pseudopotential on this center.
   20          1
                                   No pseudopotential on this center.
   21          1
                                   No pseudopotential on this center.
   22          1
                                   No pseudopotential on this center.
   23          7
                                   No pseudopotential on this center.
   24          8
                                   No pseudopotential on this center.
   25          6
                                   No pseudopotential on this center.
   26          6
                                   No pseudopotential on this center.
   27          1
                                   No pseudopotential on this center.
   28          1
                                   No pseudopotential on this center.
   29          1
                                   No pseudopotential on this center.
   30          1
                                   No pseudopotential on this center.
   31          1
                                   No pseudopotential on this center.
   32          6
                                   No pseudopotential on this center.
   33          1
                                   No pseudopotential on this center.
   34          1
                                   No pseudopotential on this center.
   35          6
                                   No pseudopotential on this center.
   36          6
                                   No pseudopotential on this center.
   37          1
                                   No pseudopotential on this center.
   38          6
                                   No pseudopotential on this center.
   39          1
                                   No pseudopotential on this center.
   40          1
                                   No pseudopotential on this center.
   41          1
                                   No pseudopotential on this center.
   42          6
                                   No pseudopotential on this center.
   43          6
                                   No pseudopotential on this center.
   44          6
                                   No pseudopotential on this center.
   45          6
                                   No pseudopotential on this center.
   46          1
                                   No pseudopotential on this center.
   47          6
                                   No pseudopotential on this center.
   48          1
                                   No pseudopotential on this center.
   49          6
                                   No pseudopotential on this center.
   50          1
                                   No pseudopotential on this center.
   51          1
                                   No pseudopotential on this center.
   52          1
                                   No pseudopotential on this center.
 ======================================================================================================
 There are   464 symmetry adapted cartesian basis functions of A   symmetry.
 There are   436 symmetry adapted basis functions of A   symmetry.
   436 basis functions,   880 primitive gaussians,   464 cartesian basis functions
   105 alpha electrons      105 beta electrons
       nuclear repulsion energy      3010.7175461714 Hartrees.
 NAtoms=   52 NActive=   52 NUniq=   52 SFac= 1.00D+00 NAtFMM=   60 NAOKFM=F Big=F
 Integral buffers will be    131072 words long.
 Raffenetti 2 integral format.
 Two-electron integral symmetry is turned on.
 Nuclear repulsion after empirical dispersion term =     3010.5922088251 Hartrees.
 ------------------------------------------------------------------------------
 Polarizable Continuum Model (PCM)
 =================================
 Model                : PCM.
 Atomic radii         : SMD-Coulomb.
 Polarization charges : Total charges.
 Charge compensation  : None.
 Solution method      : On-the-fly selection.
 Cavity type          : VdW (van der Waals Surface) (Alpha=1.000).
 Cavity algorithm     : GePol (No added spheres)
                        Default sphere list used, NSphG=   52.
                        Lebedev-Laikov grids with approx.  5.0 points / Ang**2.
                        Smoothing algorithm: York/Karplus (Gamma=1.0000).
                        Polarization charges: spherical gaussians, with
                                              point-specific exponents (IZeta= 3).
                        Self-potential: point-specific (ISelfS= 7).
                        Self-field    : sphere-specific E.n sum rule (ISelfD= 2).
 Solvent              : Acetone, Eps=  20.493000 Eps(inf)=   1.846337
 ------------------------------------------------------------------------------
 ------------------------------------------------------------------------------
 Atomic radii for non-electrostatic terms: SMD-CDS.
 ------------------------------------------------------------------------------
 Nuclear repulsion after PCM non-electrostatic terms =     3010.5858192465 Hartrees.
 One-electron integrals computed using PRISM.
   1 Symmetry operations used in ECPInt.
 ECPInt:  NShTT=   13203 NPrTT=   81964 LenC2=   11393 LenP2D=   39484.
 LDataN:  DoStor=T MaxTD1= 4 Len=   56
 NBasis=   436 RedAO= T EigKep=  4.36D-04  NBF=   436
 NBsUse=   436 1.00D-06 EigRej= -1.00D+00 NBFU=   436
 ExpMin= 2.30D-02 ExpMax= 5.48D+03 ExpMxC= 8.25D+02 IAcc=3 IRadAn=         5 AccDes= 0.00D+00
 Harris functional with IExCor=  402 and IRadAn=       5 diagonalized for initial guess.
 HarFok:  IExCor=  402 AccDes= 0.00D+00 IRadAn=         5 IDoV= 1 UseB2=F ITyADJ=14
 ICtDFT=  3500011 ScaDFX=  1.000000  1.000000  1.000000  1.000000
 FoFCou: FMM=F IPFlag=           0 FMFlag=      100000 FMFlg1=           0
         NFxFlg=           0 DoJE=T BraDBF=F KetDBF=T FulRan=T
         wScrn=  0.000000 ICntrl=       500 IOpCl=  0 I1Cent=   200000004 NGrid=           0
         NMat0=    1 NMatS0=      1 NMatT0=    0 NMatD0=    1 NMtDS0=    0 NMtDT0=    0
 Petite list used in FoFCou.
 Requested convergence on RMS density matrix=1.00D-08 within 128 cycles.
 Requested convergence on MAX density matrix=1.00D-06.
 Requested convergence on             energy=1.00D-06.
 No special actions if energy rises.
 Inv3:  Mode=1 IEnd=    40715568.
 Iteration    1 A*A^-1 deviation from unit magnitude is 4.11D-15 for   1807.
 Iteration    1 A*A^-1 deviation from orthogonality  is 2.66D-15 for   2331    381.
 Iteration    1 A^-1*A deviation from unit magnitude is 3.22D-15 for   1367.
 Iteration    1 A^-1*A deviation from orthogonality  is 6.75D-14 for   1806   1764.
 EnCoef did     5 forward-backward iterations
 Error on total polarization charges =  0.04475
 SCF Done:  E(RB3LYP) =  -1365.93350552     A.U. after   20 cycles
            NFock= 20  Conv=0.71D-08     -V/T= 2.0505
 SMD-CDS (non-electrostatic) energy       (kcal/mol) =      -4.01
 (included in total energy above)

 **********************************************************************

            Population analysis using the SCF Density.

 **********************************************************************

 Orbital symmetries:
       Occupied  (A) (A) (A) (A) (A) (A) (A) (A) (A) (A) (A) (A)
                 (A) (A) (A) (A) (A) (A) (A) (A) (A) (A) (A) (A)
                 (A) (A) (A) (A) (A) (A) (A) (A) (A) (A) (A) (A)
                 (A) (A) (A) (A) (A) (A) (A) (A) (A) (A) (A) (A)
                 (A) (A) (A) (A) (A) (A) (A) (A) (A) (A) (A) (A)
                 (A) (A) (A) (A) (A) (A) (A) (A) (A) (A) (A) (A)
                 (A) (A) (A) (A) (A) (A) (A) (A) (A) (A) (A) (A)
                 (A) (A) (A) (A) (A) (A) (A) (A) (A) (A) (A) (A)
                 (A) (A) (A) (A) (A) (A) (A) (A) (A)
       Virtual   (A) (A) (A) (A) (A) (A) (A) (A) (A) (A) (A) (A)
                 (A) (A) (A) (A) (A) (A) (A) (A) (A) (A) (A) (A)
                 (A) (A) (A) (A) (A) (A) (A) (A) (A) (A) (A) (A)
                 (A) (A) (A) (A) (A) (A) (A) (A) (A) (A) (A) (A)
                 (A) (A) (A) (A) (A) (A) (A) (A) (A) (A) (A) (A)
                 (A) (A) (A) (A) (A) (A) (A) (A) (A) (A) (A) (A)
                 (A) (A) (A) (A) (A) (A) (A) (A) (A) (A) (A) (A)
                 (A) (A) (A) (A) (A) (A) (A) (A) (A) (A) (A) (A)
                 (A) (A) (A) (A) (A) (A) (A) (A) (A) (A) (A) (A)
                 (A) (A) (A) (A) (A) (A) (A) (A) (A) (A) (A) (A)
                 (A) (A) (A) (A) (A) (A) (A) (A) (A) (A) (A) (A)
                 (A) (A) (A) (A) (A) (A) (A) (A) (A) (A) (A) (A)
                 (A) (A) (A) (A) (A) (A) (A) (A) (A) (A) (A) (A)
                 (A) (A) (A) (A) (A) (A) (A) (A) (A) (A) (A) (A)
                 (A) (A) (A) (A) (A) (A) (A) (A) (A) (A) (A) (A)
                 (A) (A) (A) (A) (A) (A) (A) (A) (A) (A) (A) (A)
                 (A) (A) (A) (A) (A) (A) (A) (A) (A) (A) (A) (A)
                 (A) (A) (A) (A) (A) (A) (A) (A) (A) (A) (A) (A)
                 (A) (A) (A) (A) (A) (A) (A) (A) (A) (A) (A) (A)
                 (A) (A) (A) (A) (A) (A) (A) (A) (A) (A) (A) (A)
                 (A) (A) (A) (A) (A) (A) (A) (A) (A) (A) (A) (A)
                 (A) (A) (A) (A) (A) (A) (A) (A) (A) (A) (A) (A)
                 (A) (A) (A) (A) (A) (A) (A) (A) (A) (A) (A) (A)
                 (A) (A) (A) (A) (A) (A) (A) (A) (A) (A) (A) (A)
                 (A) (A) (A) (A) (A) (A) (A) (A) (A) (A) (A) (A)
                 (A) (A) (A) (A) (A) (A) (A) (A) (A) (A) (A) (A)
                 (A) (A) (A) (A) (A) (A) (A) (A) (A) (A) (A) (A)
                 (A) (A) (A) (A) (A) (A) (A)
 The electronic state is 1-A.
 Alpha  occ. eigenvalues --  -19.16754 -19.16618 -19.12823 -19.12797 -14.41177
 Alpha  occ. eigenvalues --  -14.40876 -14.40556 -14.40514 -10.23689 -10.23539
 Alpha  occ. eigenvalues --  -10.21362 -10.21295 -10.18657 -10.18485 -10.17641
 Alpha  occ. eigenvalues --  -10.17616 -10.17576 -10.17533 -10.17517 -10.17471
 Alpha  occ. eigenvalues --  -10.17468 -10.17407 -10.17073 -10.16836 -10.16757
 Alpha  occ. eigenvalues --  -10.15365  -3.74588  -2.44620  -2.43796  -2.42764
 Alpha  occ. eigenvalues --   -1.09111  -1.08564  -1.07020  -1.06429  -0.90655
 Alpha  occ. eigenvalues --   -0.89474  -0.85876  -0.81944  -0.80981  -0.80644
 Alpha  occ. eigenvalues --   -0.75366  -0.74670  -0.74299  -0.74208  -0.70661
 Alpha  occ. eigenvalues --   -0.70531  -0.68326  -0.66428  -0.62349  -0.60365
 Alpha  occ. eigenvalues --   -0.60159  -0.58844  -0.54936  -0.53625  -0.52983
 Alpha  occ. eigenvalues --   -0.52144  -0.51405  -0.50932  -0.49498  -0.49073
 Alpha  occ. eigenvalues --   -0.47729  -0.46974  -0.46704  -0.46000  -0.45602
 Alpha  occ. eigenvalues --   -0.44579  -0.43434  -0.42790  -0.42495  -0.42300
 Alpha  occ. eigenvalues --   -0.42112  -0.41993  -0.41388  -0.40877  -0.40622
 Alpha  occ. eigenvalues --   -0.40117  -0.39532  -0.38977  -0.38886  -0.38149
 Alpha  occ. eigenvalues --   -0.38061  -0.37859  -0.37606  -0.37368  -0.36719
 Alpha  occ. eigenvalues --   -0.36414  -0.34809  -0.34613  -0.34309  -0.33491
 Alpha  occ. eigenvalues --   -0.33137  -0.30997  -0.30575  -0.28325  -0.27968
 Alpha  occ. eigenvalues --   -0.27746  -0.26772  -0.26448  -0.25243  -0.25110
 Alpha  occ. eigenvalues --   -0.25060  -0.22472  -0.20360  -0.19815  -0.19468
 Alpha virt. eigenvalues --   -0.09421  -0.03878  -0.03340  -0.00510   0.00128
 Alpha virt. eigenvalues --    0.00364   0.02615   0.02800   0.03251   0.06568
 Alpha virt. eigenvalues --    0.06666   0.06930   0.07787   0.11149   0.12491
 Alpha virt. eigenvalues --    0.12745   0.13423   0.14397   0.14808   0.14875
 Alpha virt. eigenvalues --    0.15581   0.15747   0.16435   0.16781   0.17255
 Alpha virt. eigenvalues --    0.17413   0.17731   0.18098   0.18457   0.18832
 Alpha virt. eigenvalues --    0.19230   0.19521   0.20241   0.20361   0.20708
 Alpha virt. eigenvalues --    0.22028   0.22856   0.23413   0.23995   0.24766
 Alpha virt. eigenvalues --    0.24924   0.24978   0.25711   0.26386   0.26964
 Alpha virt. eigenvalues --    0.27543   0.27906   0.29060   0.29673   0.29991
 Alpha virt. eigenvalues --    0.30135   0.31619   0.32089   0.33931   0.34502
 Alpha virt. eigenvalues --    0.35093   0.36015   0.36686   0.40013   0.41115
 Alpha virt. eigenvalues --    0.42055   0.42659   0.42855   0.44690   0.46929
 Alpha virt. eigenvalues --    0.48286   0.49591   0.51030   0.51912   0.53028
 Alpha virt. eigenvalues --    0.53880   0.53903   0.54827   0.55463   0.55672
 Alpha virt. eigenvalues --    0.56132   0.57013   0.57181   0.58296   0.58507
 Alpha virt. eigenvalues --    0.59016   0.59707   0.60390   0.60403   0.60764
 Alpha virt. eigenvalues --    0.61641   0.62020   0.62528   0.63149   0.63775
 Alpha virt. eigenvalues --    0.64352   0.65248   0.66230   0.66876   0.67787
 Alpha virt. eigenvalues --    0.68403   0.68962   0.69581   0.69756   0.70252
 Alpha virt. eigenvalues --    0.71205   0.71442   0.72806   0.74088   0.74777
 Alpha virt. eigenvalues --    0.75479   0.75765   0.75969   0.77735   0.78560
 Alpha virt. eigenvalues --    0.79783   0.80559   0.81950   0.82309   0.83571
 Alpha virt. eigenvalues --    0.84027   0.84063   0.84924   0.85048   0.85169
 Alpha virt. eigenvalues --    0.85455   0.86044   0.86651   0.87110   0.88225
 Alpha virt. eigenvalues --    0.88507   0.88706   0.89219   0.90072   0.90681
 Alpha virt. eigenvalues --    0.90840   0.91486   0.92180   0.92529   0.93253
 Alpha virt. eigenvalues --    0.93366   0.94048   0.94595   0.94811   0.95357
 Alpha virt. eigenvalues --    0.96346   0.96544   0.97103   0.97882   0.98329
 Alpha virt. eigenvalues --    0.99659   1.00659   1.01209   1.02183   1.02448
 Alpha virt. eigenvalues --    1.03518   1.03907   1.04480   1.05691   1.06156
 Alpha virt. eigenvalues --    1.06845   1.08230   1.08386   1.10657   1.10783
 Alpha virt. eigenvalues --    1.12965   1.13442   1.14115   1.15521   1.15912
 Alpha virt. eigenvalues --    1.16509   1.18902   1.19744   1.20962   1.21501
 Alpha virt. eigenvalues --    1.21992   1.23254   1.24568   1.25990   1.26602
 Alpha virt. eigenvalues --    1.27540   1.28186   1.29279   1.30288   1.31411
 Alpha virt. eigenvalues --    1.33316   1.34684   1.35057   1.36025   1.36438
 Alpha virt. eigenvalues --    1.37198   1.37839   1.38603   1.38954   1.39623
 Alpha virt. eigenvalues --    1.40090   1.40820   1.42619   1.43152   1.44511
 Alpha virt. eigenvalues --    1.44719   1.45695   1.47118   1.47664   1.49778
 Alpha virt. eigenvalues --    1.49932   1.50700   1.51849   1.52777   1.53489
 Alpha virt. eigenvalues --    1.56730   1.57167   1.60730   1.62455   1.64409
 Alpha virt. eigenvalues --    1.65177   1.67455   1.72067   1.74008   1.74849
 Alpha virt. eigenvalues --    1.75379   1.76231   1.76769   1.77699   1.78513
 Alpha virt. eigenvalues --    1.79417   1.79610   1.80448   1.80771   1.81172
 Alpha virt. eigenvalues --    1.81860   1.82630   1.83614   1.84096   1.86187
 Alpha virt. eigenvalues --    1.86798   1.87719   1.89099   1.89921   1.90220
 Alpha virt. eigenvalues --    1.91650   1.92546   1.93368   1.94441   1.95010
 Alpha virt. eigenvalues --    1.96162   1.97276   1.98603   1.99084   2.00129
 Alpha virt. eigenvalues --    2.00291   2.01402   2.02128   2.02357   2.05482
 Alpha virt. eigenvalues --    2.06836   2.08576   2.10499   2.11825   2.12724
 Alpha virt. eigenvalues --    2.12871   2.13575   2.14584   2.14763   2.16030
 Alpha virt. eigenvalues --    2.16419   2.17542   2.18725   2.19288   2.20362
 Alpha virt. eigenvalues --    2.21811   2.23842   2.24149   2.27291   2.28146
 Alpha virt. eigenvalues --    2.28398   2.29465   2.30273   2.31172   2.31893
 Alpha virt. eigenvalues --    2.32843   2.33177   2.33478   2.33781   2.34078
 Alpha virt. eigenvalues --    2.34675   2.35059   2.36312   2.37629   2.38315
 Alpha virt. eigenvalues --    2.41802   2.43921   2.46613   2.49009   2.51672
 Alpha virt. eigenvalues --    2.51804   2.53157   2.53351   2.54284   2.54688
 Alpha virt. eigenvalues --    2.56299   2.57202   2.58662   2.59336   2.60809
 Alpha virt. eigenvalues --    2.63940   2.64179   2.65082   2.66141   2.66537
 Alpha virt. eigenvalues --    2.67541   2.67892   2.71575   2.74426   2.76004
 Alpha virt. eigenvalues --    2.76370   2.77425   2.78497   2.82016   2.85437
 Alpha virt. eigenvalues --    2.87179   2.90812   2.91604   2.93437   2.96514
 Alpha virt. eigenvalues --    3.02419   3.05112   3.06164   3.08787   3.10350
 Alpha virt. eigenvalues --    3.10824   3.21191   3.29606   3.32534   3.46423
 Alpha virt. eigenvalues --   21.77554
          Condensed to atoms (all electrons):
 Mulliken charges:
               1
     1  Co   0.329796
     2  N   -0.169333
     3  O   -0.572510
     4  C    0.326290
     5  C   -0.546392
     6  H    0.205248
     7  H    0.199260
     8  H    0.200271
     9  N   -0.065243
    10  O   -0.555391
    11  C    0.268788
    12  C   -0.547044
    13  H    0.189653
    14  H    0.187145
    15  H    0.190398
    16  N   -0.171074
    17  O   -0.571174
    18  C    0.331618
    19  C   -0.548104
    20  H    0.198742
    21  H    0.199346
    22  H    0.204631
    23  N   -0.090849
    24  O   -0.549990
    25  C    0.273652
    26  C   -0.549928
    27  H    0.186818
    28  H    0.189867
    29  H    0.187869
    30  H    0.471581
    31  H    0.469718
    32  C   -0.396793
    33  H    0.186880
    34  H    0.191114
    35  C    0.235234
    36  C   -0.267996
    37  H    0.154055
    38  C   -0.558720
    39  H    0.164528
    40  H    0.163009
    41  H    0.194731
    42  C    0.148575
    43  C   -0.203164
    44  C   -0.202548
    45  C   -0.154027
    46  H    0.153596
    47  C   -0.159272
    48  H    0.166167
    49  C   -0.151177
    50  H    0.154268
    51  H    0.154213
    52  H    0.153668
 Sum of Mulliken charges =  -0.00000
 Mulliken charges with hydrogens summed into heavy atoms:
               1
     1  Co   0.329796
     2  N   -0.169333
     3  O   -0.100929
     4  C    0.326290
     5  C    0.058388
     9  N   -0.065243
    10  O   -0.555391
    11  C    0.268788
    12  C    0.020152
    16  N   -0.171074
    17  O   -0.101455
    18  C    0.331618
    19  C    0.054615
    23  N   -0.090849
    24  O   -0.549990
    25  C    0.273652
    26  C    0.014625
    32  C   -0.018798
    35  C    0.235234
    36  C   -0.113942
    38  C   -0.036451
    42  C    0.148575
    43  C   -0.049567
    44  C   -0.036381
    45  C    0.000240
    47  C   -0.005059
    49  C    0.002492
 Electronic spatial extent (au):  <R**2>=          10307.3904
 Charge=              0.0000 electrons
 Dipole moment (field-independent basis, Debye):
    X=             -0.2040    Y=              0.1403    Z=              0.9673  Tot=              0.9985
 Quadrupole moment (field-independent basis, Debye-Ang):
   XX=           -132.4661   YY=           -176.6857   ZZ=           -161.7933
   XY=             11.4494   XZ=              7.1817   YZ=              9.6697
 Traceless Quadrupole moment (field-independent basis, Debye-Ang):
   XX=             24.5156   YY=            -19.7040   ZZ=             -4.8116
   XY=             11.4494   XZ=              7.1817   YZ=              9.6697
 Octapole moment (field-independent basis, Debye-Ang**2):
  XXX=           -120.6664  YYY=              2.8254  ZZZ=             34.0914  XYY=              7.6272
  XXY=            -27.1048  XXZ=             -7.8499  XZZ=            -17.4790  YZZ=             26.3111
  YYZ=              9.9193  XYZ=            -27.5156
 Hexadecapole moment (field-independent basis, Debye-Ang**3):
 XXXX=          -8134.1833 YYYY=          -2408.2833 ZZZZ=          -1841.1545 XXXY=            138.9596
 XXXZ=             51.4680 YYYX=             40.9749 YYYZ=             13.7964 ZZZX=             61.5439
 ZZZY=             14.4160 XXYY=          -1975.0485 XXZZ=          -1862.5364 YYZZ=           -688.4262
 XXYZ=            -40.5108 YYXZ=             23.2038 ZZXY=             65.6589
 N-N= 3.010585819247D+03 E-N=-9.212512962225D+03  KE= 1.300236671158D+03
 Unable to Open any file for archive entry.
 1\1\GINC-N204\SP\RB3LYP\GenECP\C18H25Co1N4O4\CJD\02-Mar-2023\0\\# B3LY
 P/genecp em=GD3BJ int=fine scrf=(smd,solvent=acetone)\\Template\\0,1\C
 o,0,-1.326371794,-0.2024217294,-0.2421148455\N,0,-2.4606390531,1.27695
 84104,-0.4513526701\O,0,-2.1796746218,2.4202901232,-1.1396701113\C,0,-
 3.622473422,1.1545966965,0.1074192865\C,0,-4.6946335618,2.187249555,0.
 033782521\H,0,-4.8304302335,2.6462552731,1.0118254348\H,0,-5.637858479
 9,1.7339888349,-0.2616813432\H,0,-4.4130246233,2.9560270414,-0.6811492
 315\N,0,-2.7313578829,-0.8388185209,0.832130871\O,0,-2.7067530995,-1.9
 759769487,1.4485286912\C,0,-3.7881739985,-0.0752036473,0.8420023149\C,
 0,-5.0500623496,-0.4238231943,1.5644125933\H,0,-5.8761524505,-0.545698
 2933,0.8653108497\H,0,-5.3117128487,0.3564283683,2.2760423305\H,0,-4.8
 951695369,-1.3603683163,2.0961922164\N,0,-0.3094088172,-1.7856723483,-
 0.2390402042\O,0,-0.4780236917,-2.8500522488,0.6004240553\C,0,0.619413
 6744,-1.843049455,-1.1380988489\C,0,1.5210163867,-3.0134495525,-1.3324
 412077\H,0,1.531839998,-3.3143516718,-2.3775563842\H,0,1.1847061173,-3
 .8412961366,-0.7136844354\H,0,2.5366483817,-2.7447438459,-1.0463041109
 \N,0,-0.0800453816,0.3052933708,-1.5734658251\O,0,-0.0735055386,1.4594
 047001,-2.1690291842\C,0,0.7418144971,-0.6428171942,-1.9269301714\C,0,
 1.7495507492,-0.4968919485,-3.0216705834\H,0,2.7557428833,-0.650440917
 9,-2.6367818157\H,0,1.6702063438,0.5067820519,-3.4344766435\H,0,1.5676
 912451,-1.2215576833,-3.8139199144\H,0,-1.2907081639,2.2084322045,-1.6
 272119863\H,0,-1.371824848,-2.6520495293,1.0769071999\C,0,-0.415995004
 7,0.5311538194,1.4110408981\H,0,-1.0630417878,1.3430891087,1.740262386
 7\H,0,-0.4505755771,-0.3127960526,2.0989485384\C,0,0.9349175049,0.9637
 442973,1.1064951711\C,0,1.9598212562,0.0886558358,1.2845755008\H,0,1.7
 09711465,-0.8760294187,1.7103376677\C,0,1.1257787311,2.3905113469,0.68
 35918259\H,0,0.3646388463,3.017950153,1.140805664\H,0,2.1078503749,2.7
 545624254,0.9720933927\H,0,1.0204785726,2.4906397929,-0.3958882315\C,0
 ,3.3728225964,0.2690510893,1.024911708\C,0,4.2930116311,-0.4361885791,
 1.8120923142\C,0,3.8695485813,1.0678406523,-0.0101453625\C,0,5.6516247
 97,-0.3110241578,1.6043656152\H,0,3.9254918189,-1.0731905294,2.6038554
 48\C,0,5.2307878983,1.1773747894,-0.2255070803\H,0,3.184937456,1.56680
 41505,-0.6754415849\C,0,6.1281957943,0.5016771176,0.5861196705\H,0,6.3
 444474397,-0.8523668395,2.2322017375\H,0,5.5951556507,1.7927995979,-1.
 0354164937\H,0,7.1909157537,0.5969756067,0.4194396571\\Version=ES64L-G
 16RevC.01\State=1-A\HF=-1365.9335055\RMSD=7.129e-09\Dipole=-0.0859374,
 -0.1155576,-0.3654852\Quadrupole=17.6088038,-11.3996914,-6.2091124,-10
 .1041758,-3.7335962,8.7829813\PG=C01 [X(C18H25Co1N4O4)]\\@
 The archive entry for this job was punched.


 Not by the face shall a man be known, but by the mask.
                               -- Karen Blixen
 Job cpu time:       0 days  0 hours 19 minutes 35.2 seconds.
 Elapsed time:       0 days  0 hours  1 minutes 15.7 seconds.
 File lengths (MBytes):  RWF=    330 Int=      0 D2E=      0 Chk=     14 Scr=      1
 Normal termination of Gaussian 16 at Thu Mar  2 08:07:37 2023.
