 Entering Gaussian System, Link 0=g16
 Initial command:
 /opt/local/g16/l1.exe "/data/tmp/cjd/Gau-60548.inp" -scrdir="/data/tmp/cjd/"
 Entering Link 1 = /opt/local/g16/l1.exe PID=     60549.
  
 Copyright (c) 1988-2019, Gaussian, Inc.  All Rights Reserved.
  
 This is part of the Gaussian(R) 16 program.  It is based on
 the Gaussian(R) 09 system (copyright 2009, Gaussian, Inc.),
 the Gaussian(R) 03 system (copyright 2003, Gaussian, Inc.),
 the Gaussian(R) 98 system (copyright 1998, Gaussian, Inc.),
 the Gaussian(R) 94 system (copyright 1995, Gaussian, Inc.),
 the Gaussian 92(TM) system (copyright 1992, Gaussian, Inc.),
 the Gaussian 90(TM) system (copyright 1990, Gaussian, Inc.),
 the Gaussian 88(TM) system (copyright 1988, Gaussian, Inc.),
 the Gaussian 86(TM) system (copyright 1986, Carnegie Mellon
 University), and the Gaussian 82(TM) system (copyright 1983,
 Carnegie Mellon University). Gaussian is a federally registered
 trademark of Gaussian, Inc.
  
 This software contains proprietary and confidential information,
 including trade secrets, belonging to Gaussian, Inc.
  
 This software is provided under written license and may be
 used, copied, transmitted, or stored only in accord with that
 written license.
  
 The following legend is applicable only to US Government
 contracts under FAR:
  
                    RESTRICTED RIGHTS LEGEND
  
 Use, reproduction and disclosure by the US Government is
 subject to restrictions as set forth in subparagraphs (a)
 and (c) of the Commercial Computer Software - Restricted
 Rights clause in FAR 52.227-19.
  
 Gaussian, Inc.
 340 Quinnipiac St., Bldg. 40, Wallingford CT 06492
  
  
 ---------------------------------------------------------------
 Warning -- This program may not be used in any manner that
 competes with the business of Gaussian, Inc. or will provide
 assistance to any competitor of Gaussian, Inc.  The licensee
 of this program is prohibited from giving any competitor of
 Gaussian, Inc. access to this program.  By using this program,
 the user acknowledges that Gaussian, Inc. is engaged in the
 business of creating and licensing software in the field of
 computational chemistry and represents and warrants to the
 licensee that it is not a competitor of Gaussian, Inc. and that
 it will not use this program in any manner prohibited above.
 ---------------------------------------------------------------
  

 Cite this work as:
 Gaussian 16, Revision C.01,
 M. J. Frisch, G. W. Trucks, H. B. Schlegel, G. E. Scuseria, 
 M. A. Robb, J. R. Cheeseman, G. Scalmani, V. Barone, 
 G. A. Petersson, H. Nakatsuji, X. Li, M. Caricato, A. V. Marenich, 
 J. Bloino, B. G. Janesko, R. Gomperts, B. Mennucci, H. P. Hratchian, 
 J. V. Ortiz, A. F. Izmaylov, J. L. Sonnenberg, D. Williams-Young, 
 F. Ding, F. Lipparini, F. Egidi, J. Goings, B. Peng, A. Petrone, 
 T. Henderson, D. Ranasinghe, V. G. Zakrzewski, J. Gao, N. Rega, 
 G. Zheng, W. Liang, M. Hada, M. Ehara, K. Toyota, R. Fukuda, 
 J. Hasegawa, M. Ishida, T. Nakajima, Y. Honda, O. Kitao, H. Nakai, 
 T. Vreven, K. Throssell, J. A. Montgomery, Jr., J. E. Peralta, 
 F. Ogliaro, M. J. Bearpark, J. J. Heyd, E. N. Brothers, K. N. Kudin, 
 V. N. Staroverov, T. A. Keith, R. Kobayashi, J. Normand, 
 K. Raghavachari, A. P. Rendell, J. C. Burant, S. S. Iyengar, 
 J. Tomasi, M. Cossi, J. M. Millam, M. Klene, C. Adamo, R. Cammi, 
 J. W. Ochterski, R. L. Martin, K. Morokuma, O. Farkas, 
 J. B. Foresman, and D. J. Fox, Gaussian, Inc., Wallingford CT, 2019.
 
 ******************************************
 Gaussian 16:  ES64L-G16RevC.01  3-Jul-2019
                 2-Mar-2023 
 ******************************************
 %nproc=16
 Will use up to   16 processors via shared memory.
 %mem=60GB
 -----------------------------------------------------------
 # B3LYP/genecp em=GD3BJ int=fine scrf=(smd,solvent=acetone)
 -----------------------------------------------------------
 1/38=1,172=1/1;
 2/12=2,17=6,18=5,40=1/2;
 3/5=7,11=2,16=1,17=8,25=1,30=1,70=32201,72=19,74=-5,75=-4,124=41/1,2,3;
 4//1;
 5/5=2,38=5,53=19/2;
 6/7=2,8=2,9=2,10=2,28=1/1;
 99/5=1,9=1/99;
 --------
 Template
 --------
 Symbolic Z-matrix:
 Charge =  0 Multiplicity = 1
 Co                   -1.00781  -0.47987  -0.78262 
 N                    -1.2328    1.35655  -0.43797 
 O                    -1.29855   2.34951  -1.37431 
 C                    -1.33614   1.67284   0.81252 
 C                    -1.53943   3.0638    1.30709 
 H                    -1.71234   3.73005   0.46596 
 H                    -0.65348   3.39317   1.84759 
 H                    -2.38608   3.10369   1.98879 
 N                    -0.95052  -0.57586   1.10984 
 O                    -0.7729   -1.67231   1.78276 
 C                    -1.19661   0.5543    1.71091 
 C                    -1.28874   0.69752   3.19622 
 H                    -1.12646  -0.27829   3.64941 
 H                    -2.27016   1.06699   3.4894 
 H                    -0.53445   1.39273   3.55966 
 N                    -1.03105  -2.33146  -1.07866 
 O                    -0.76135  -3.30089  -0.15822 
 C                    -1.35902  -2.68608  -2.28023 
 C                    -1.47769  -4.10318  -2.7264 
 H                    -2.41891  -4.25911  -3.24803 
 H                    -1.41743  -4.76344  -1.86503 
 H                    -0.66601  -4.3416   -3.41203 
 N                    -1.38952  -0.41094  -2.62088 
 O                    -1.54229   0.69011  -3.2821 
 C                    -1.58099  -1.57632  -3.17369 
 C                    -1.97413  -1.75477  -4.60527 
 H                    -2.00262  -0.7759   -5.07949 
 H                    -2.95842  -2.21445  -4.68258 
 H                    -1.25592  -2.3866   -5.12354 
 H                    -1.38385   1.84248  -2.26875 
 H                    -0.7082   -2.78737   0.73944 
 C                     0.96163  -0.28051  -1.20669 
 H                     1.21489  -1.18169  -1.76343 
 H                     0.98552   0.60276  -1.84385 
 C                     1.72866  -0.12727   0.01482 
 C                     2.00016   1.12577   0.46737 
 H                     1.67657   1.95011  -0.15737 
 C                     2.24126  -1.37546   0.67047 
 H                     1.51891  -1.75471   1.39213 
 H                     2.392    -2.1526   -0.07455 
 H                     3.17951  -1.18743   1.18513 
 C                     2.70792   1.53529   1.662 
 C                     3.39683   2.75574   1.64531 
 C                     2.69541   0.80457   2.85467 
 C                     4.08218   3.20272   2.75662 
 H                     3.40102   3.34279   0.738 
 C                     3.36961   1.26408   3.97071 
 H                     2.1171   -0.10148   2.92087 
 C                     4.07638   2.45529   3.92531 
 H                     4.61879   4.13962   2.7176 
 H                     3.34096   0.68945   4.88528 
 H                     4.60848   2.80588   4.79721 
 
 Stoichiometry    C18H25CoN4O4
 Framework group  C1[X(C18H25CoN4O4)]
 Deg. of freedom   150
 Full point group                 C1      NOp   1
 Largest Abelian subgroup         C1      NOp   1
 Largest concise Abelian subgroup C1      NOp   1
                         Standard orientation:                         
 ---------------------------------------------------------------------
 Center     Atomic      Atomic             Coordinates (Angstroms)
 Number     Number       Type             X           Y           Z
 ---------------------------------------------------------------------
      1         27           0       -1.346824    0.247312    0.276193
      2          7           0       -0.341913    1.835549    0.373667
      3          8           0       -0.539699    2.960931   -0.375620
      4          6           0        0.614631    1.828556    1.245108
      5          6           0        1.518435    2.985439    1.500968
      6          1           0        1.169737    3.852454    0.946013
      7          1           0        2.529031    2.738345    1.179782
      8          1           0        1.547828    3.215617    2.563639
      9          7           0       -0.062005   -0.351315    1.535077
     10          8           0       -0.034801   -1.546571    2.042225
     11          6           0        0.765431    0.572595    1.936139
     12          6           0        1.805521    0.350985    2.986973
     13          1           0        1.731902   -0.676811    3.336433
     14          1           0        1.654710    1.024584    3.829094
     15          1           0        2.800472    0.522262    2.580641
     16          7           0       -2.460056   -1.257298    0.391991
     17          8           0       -2.151389   -2.448111    0.980579
     18          6           0       -3.635057   -1.106073   -0.131075
     19          6           0       -4.692569   -2.156245   -0.119223
     20          1           0       -5.636076   -1.740620    0.226253
     21          1           0       -4.388045   -2.973759    0.529194
     22          1           0       -4.839796   -2.540666   -1.127344
     23          7           0       -2.783137    0.951438   -0.709124
     24          8           0       -2.786626    2.136669   -1.226879
     25          6           0       -3.831358    0.177354   -0.758291
     26          6           0       -5.114305    0.568371   -1.419328
     27          1           0       -4.981224    1.545357   -1.879393
     28          1           0       -5.923027    0.626589   -0.692216
     29          1           0       -5.387780   -0.156490   -2.183146
     30          1           0       -1.446153    2.794649   -0.839389
     31          1           0       -1.256986   -2.262932    1.468504
     32          6           0       -0.475431   -0.338312   -1.454701
     33          1           0       -1.157564   -1.080045   -1.867925
     34          1           0       -0.472282    0.575710   -2.047377
     35          6           0        0.853365   -0.861105   -1.199980
     36          6           0        1.918493   -0.020895   -1.290387
     37          1           0        1.713513    0.992221   -1.616177
     38          6           0        0.976522   -2.329783   -0.919919
     39          1           0        0.897546   -2.524983    0.148761
     40          1           0        0.169621   -2.870920   -1.407586
     41          1           0        1.929186   -2.714693   -1.273206
     42          6           0        3.320934   -0.290323   -1.052985
     43          6           0        4.273817    0.459837   -1.755589
     44          6           0        3.779559   -1.222314   -0.116167
     45          6           0        5.625025    0.254087   -1.564746
     46          1           0        3.937142    1.197965   -2.469493
     47          6           0        5.134049   -1.413609    0.083836
     48          1           0        3.072913   -1.763741    0.489853
     49          6           0        6.062699   -0.689002   -0.646304
     50          1           0        6.342712    0.833343   -2.127456
     51          1           0        5.468485   -2.132182    0.818179
     52          1           0        7.119734   -0.848044   -0.492545
 ---------------------------------------------------------------------
 Rotational constants (GHZ):           0.3329902           0.1204562           0.1131851
 General basis read from cards:  (5D, 7F)
 ======================================================================================================
                                       Pseudopotential Parameters
 ======================================================================================================
  Center     Atomic      Valence      Angular      Power
  Number     Number     Electrons     Momentum     of R      Exponent        Coefficient   SO-Coeffient
 ======================================================================================================
    1         27           17
                                      D and up 
                                                     1      434.1076104      -10.00000000    0.00000000
                                                     2       78.8402758      -66.72402760    0.00000000
                                                     2       19.6037749      -11.71922430    0.00000000
                                      S - D
                                                     0      151.2307582        3.00000000    0.00000000
                                                     1      169.6790026       20.15531100    0.00000000
                                                     2       64.9909423      413.37622440    0.00000000
                                                     2       12.5076287      133.87277050    0.00000000
                                      P - D
                                                     0       92.7319924        5.00000000    0.00000000
                                                     1      121.1910183        6.18923530    0.00000000
                                                     2       48.6265909      326.32159190    0.00000000
                                                     2       11.9966971       73.87889700    0.00000000
    2          7
                                   No pseudopotential on this center.
    3          8
                                   No pseudopotential on this center.
    4          6
                                   No pseudopotential on this center.
    5          6
                                   No pseudopotential on this center.
    6          1
                                   No pseudopotential on this center.
    7          1
                                   No pseudopotential on this center.
    8          1
                                   No pseudopotential on this center.
    9          7
                                   No pseudopotential on this center.
   10          8
                                   No pseudopotential on this center.
   11          6
                                   No pseudopotential on this center.
   12          6
                                   No pseudopotential on this center.
   13          1
                                   No pseudopotential on this center.
   14          1
                                   No pseudopotential on this center.
   15          1
                                   No pseudopotential on this center.
   16          7
                                   No pseudopotential on this center.
   17          8
                                   No pseudopotential on this center.
   18          6
                                   No pseudopotential on this center.
   19          6
                                   No pseudopotential on this center.
   20          1
                                   No pseudopotential on this center.
   21          1
                                   No pseudopotential on this center.
   22          1
                                   No pseudopotential on this center.
   23          7
                                   No pseudopotential on this center.
   24          8
                                   No pseudopotential on this center.
   25          6
                                   No pseudopotential on this center.
   26          6
                                   No pseudopotential on this center.
   27          1
                                   No pseudopotential on this center.
   28          1
                                   No pseudopotential on this center.
   29          1
                                   No pseudopotential on this center.
   30          1
                                   No pseudopotential on this center.
   31          1
                                   No pseudopotential on this center.
   32          6
                                   No pseudopotential on this center.
   33          1
                                   No pseudopotential on this center.
   34          1
                                   No pseudopotential on this center.
   35          6
                                   No pseudopotential on this center.
   36          6
                                   No pseudopotential on this center.
   37          1
                                   No pseudopotential on this center.
   38          6
                                   No pseudopotential on this center.
   39          1
                                   No pseudopotential on this center.
   40          1
                                   No pseudopotential on this center.
   41          1
                                   No pseudopotential on this center.
   42          6
                                   No pseudopotential on this center.
   43          6
                                   No pseudopotential on this center.
   44          6
                                   No pseudopotential on this center.
   45          6
                                   No pseudopotential on this center.
   46          1
                                   No pseudopotential on this center.
   47          6
                                   No pseudopotential on this center.
   48          1
                                   No pseudopotential on this center.
   49          6
                                   No pseudopotential on this center.
   50          1
                                   No pseudopotential on this center.
   51          1
                                   No pseudopotential on this center.
   52          1
                                   No pseudopotential on this center.
 ======================================================================================================
 There are   464 symmetry adapted cartesian basis functions of A   symmetry.
 There are   436 symmetry adapted basis functions of A   symmetry.
   436 basis functions,   880 primitive gaussians,   464 cartesian basis functions
   105 alpha electrons      105 beta electrons
       nuclear repulsion energy      3011.6056672040 Hartrees.
 NAtoms=   52 NActive=   52 NUniq=   52 SFac= 1.00D+00 NAtFMM=   60 NAOKFM=F Big=F
 Integral buffers will be    131072 words long.
 Raffenetti 2 integral format.
 Two-electron integral symmetry is turned on.
 Nuclear repulsion after empirical dispersion term =     3011.4802781710 Hartrees.
 ------------------------------------------------------------------------------
 Polarizable Continuum Model (PCM)
 =================================
 Model                : PCM.
 Atomic radii         : SMD-Coulomb.
 Polarization charges : Total charges.
 Charge compensation  : None.
 Solution method      : On-the-fly selection.
 Cavity type          : VdW (van der Waals Surface) (Alpha=1.000).
 Cavity algorithm     : GePol (No added spheres)
                        Default sphere list used, NSphG=   52.
                        Lebedev-Laikov grids with approx.  5.0 points / Ang**2.
                        Smoothing algorithm: York/Karplus (Gamma=1.0000).
                        Polarization charges: spherical gaussians, with
                                              point-specific exponents (IZeta= 3).
                        Self-potential: point-specific (ISelfS= 7).
                        Self-field    : sphere-specific E.n sum rule (ISelfD= 2).
 Solvent              : Acetone, Eps=  20.493000 Eps(inf)=   1.846337
 ------------------------------------------------------------------------------
 ------------------------------------------------------------------------------
 Atomic radii for non-electrostatic terms: SMD-CDS.
 ------------------------------------------------------------------------------
 Nuclear repulsion after PCM non-electrostatic terms =     3011.4738822558 Hartrees.
 One-electron integrals computed using PRISM.
   1 Symmetry operations used in ECPInt.
 ECPInt:  NShTT=   13203 NPrTT=   81964 LenC2=   11396 LenP2D=   39488.
 LDataN:  DoStor=T MaxTD1= 4 Len=   56
 NBasis=   436 RedAO= T EigKep=  4.35D-04  NBF=   436
 NBsUse=   436 1.00D-06 EigRej= -1.00D+00 NBFU=   436
 ExpMin= 2.30D-02 ExpMax= 5.48D+03 ExpMxC= 8.25D+02 IAcc=3 IRadAn=         5 AccDes= 0.00D+00
 Harris functional with IExCor=  402 and IRadAn=       5 diagonalized for initial guess.
 HarFok:  IExCor=  402 AccDes= 0.00D+00 IRadAn=         5 IDoV= 1 UseB2=F ITyADJ=14
 ICtDFT=  3500011 ScaDFX=  1.000000  1.000000  1.000000  1.000000
 FoFCou: FMM=F IPFlag=           0 FMFlag=      100000 FMFlg1=           0
         NFxFlg=           0 DoJE=T BraDBF=F KetDBF=T FulRan=T
         wScrn=  0.000000 ICntrl=       500 IOpCl=  0 I1Cent=   200000004 NGrid=           0
         NMat0=    1 NMatS0=      1 NMatT0=    0 NMatD0=    1 NMtDS0=    0 NMtDT0=    0
 Petite list used in FoFCou.
 Requested convergence on RMS density matrix=1.00D-08 within 128 cycles.
 Requested convergence on MAX density matrix=1.00D-06.
 Requested convergence on             energy=1.00D-06.
 No special actions if energy rises.
 Inv3:  Mode=1 IEnd=    40693467.
 Iteration    1 A*A^-1 deviation from unit magnitude is 3.55D-15 for   3327.
 Iteration    1 A*A^-1 deviation from orthogonality  is 3.53D-15 for   3180   2806.
 Iteration    1 A^-1*A deviation from unit magnitude is 3.55D-15 for   3327.
 Iteration    1 A^-1*A deviation from orthogonality  is 2.62D-12 for   3143   3049.
 EnCoef did     5 forward-backward iterations
 Error on total polarization charges =  0.04483
 SCF Done:  E(RB3LYP) =  -1365.93379633     A.U. after   20 cycles
            NFock= 20  Conv=0.62D-08     -V/T= 2.0505
 SMD-CDS (non-electrostatic) energy       (kcal/mol) =      -4.01
 (included in total energy above)

 **********************************************************************

            Population analysis using the SCF Density.

 **********************************************************************

 Orbital symmetries:
       Occupied  (A) (A) (A) (A) (A) (A) (A) (A) (A) (A) (A) (A)
                 (A) (A) (A) (A) (A) (A) (A) (A) (A) (A) (A) (A)
                 (A) (A) (A) (A) (A) (A) (A) (A) (A) (A) (A) (A)
                 (A) (A) (A) (A) (A) (A) (A) (A) (A) (A) (A) (A)
                 (A) (A) (A) (A) (A) (A) (A) (A) (A) (A) (A) (A)
                 (A) (A) (A) (A) (A) (A) (A) (A) (A) (A) (A) (A)
                 (A) (A) (A) (A) (A) (A) (A) (A) (A) (A) (A) (A)
                 (A) (A) (A) (A) (A) (A) (A) (A) (A) (A) (A) (A)
                 (A) (A) (A) (A) (A) (A) (A) (A) (A)
       Virtual   (A) (A) (A) (A) (A) (A) (A) (A) (A) (A) (A) (A)
                 (A) (A) (A) (A) (A) (A) (A) (A) (A) (A) (A) (A)
                 (A) (A) (A) (A) (A) (A) (A) (A) (A) (A) (A) (A)
                 (A) (A) (A) (A) (A) (A) (A) (A) (A) (A) (A) (A)
                 (A) (A) (A) (A) (A) (A) (A) (A) (A) (A) (A) (A)
                 (A) (A) (A) (A) (A) (A) (A) (A) (A) (A) (A) (A)
                 (A) (A) (A) (A) (A) (A) (A) (A) (A) (A) (A) (A)
                 (A) (A) (A) (A) (A) (A) (A) (A) (A) (A) (A) (A)
                 (A) (A) (A) (A) (A) (A) (A) (A) (A) (A) (A) (A)
                 (A) (A) (A) (A) (A) (A) (A) (A) (A) (A) (A) (A)
                 (A) (A) (A) (A) (A) (A) (A) (A) (A) (A) (A) (A)
                 (A) (A) (A) (A) (A) (A) (A) (A) (A) (A) (A) (A)
                 (A) (A) (A) (A) (A) (A) (A) (A) (A) (A) (A) (A)
                 (A) (A) (A) (A) (A) (A) (A) (A) (A) (A) (A) (A)
                 (A) (A) (A) (A) (A) (A) (A) (A) (A) (A) (A) (A)
                 (A) (A) (A) (A) (A) (A) (A) (A) (A) (A) (A) (A)
                 (A) (A) (A) (A) (A) (A) (A) (A) (A) (A) (A) (A)
                 (A) (A) (A) (A) (A) (A) (A) (A) (A) (A) (A) (A)
                 (A) (A) (A) (A) (A) (A) (A) (A) (A) (A) (A) (A)
                 (A) (A) (A) (A) (A) (A) (A) (A) (A) (A) (A) (A)
                 (A) (A) (A) (A) (A) (A) (A) (A) (A) (A) (A) (A)
                 (A) (A) (A) (A) (A) (A) (A) (A) (A) (A) (A) (A)
                 (A) (A) (A) (A) (A) (A) (A) (A) (A) (A) (A) (A)
                 (A) (A) (A) (A) (A) (A) (A) (A) (A) (A) (A) (A)
                 (A) (A) (A) (A) (A) (A) (A) (A) (A) (A) (A) (A)
                 (A) (A) (A) (A) (A) (A) (A) (A) (A) (A) (A) (A)
                 (A) (A) (A) (A) (A) (A) (A) (A) (A) (A) (A) (A)
                 (A) (A) (A) (A) (A) (A) (A)
 The electronic state is 1-A.
 Alpha  occ. eigenvalues --  -19.16734 -19.16621 -19.12824 -19.12801 -14.41190
 Alpha  occ. eigenvalues --  -14.40856 -14.40554 -14.40501 -10.23681 -10.23547
 Alpha  occ. eigenvalues --  -10.21350 -10.21255 -10.18657 -10.18493 -10.17635
 Alpha  occ. eigenvalues --  -10.17608 -10.17570 -10.17530 -10.17500 -10.17472
 Alpha  occ. eigenvalues --  -10.17466 -10.17407 -10.17076 -10.16835 -10.16743
 Alpha  occ. eigenvalues --  -10.15357  -3.74565  -2.44600  -2.43776  -2.42734
 Alpha  occ. eigenvalues --   -1.09104  -1.08557  -1.07025  -1.06426  -0.90647
 Alpha  occ. eigenvalues --   -0.89467  -0.85868  -0.81935  -0.80982  -0.80635
 Alpha  occ. eigenvalues --   -0.75365  -0.74666  -0.74290  -0.74206  -0.70657
 Alpha  occ. eigenvalues --   -0.70521  -0.68323  -0.66428  -0.62342  -0.60359
 Alpha  occ. eigenvalues --   -0.60149  -0.58843  -0.54930  -0.53624  -0.52980
 Alpha  occ. eigenvalues --   -0.52137  -0.51397  -0.50924  -0.49475  -0.49074
 Alpha  occ. eigenvalues --   -0.47730  -0.46952  -0.46695  -0.45993  -0.45620
 Alpha  occ. eigenvalues --   -0.44573  -0.43433  -0.42774  -0.42485  -0.42291
 Alpha  occ. eigenvalues --   -0.42098  -0.41982  -0.41383  -0.40880  -0.40613
 Alpha  occ. eigenvalues --   -0.40131  -0.39527  -0.38955  -0.38884  -0.38158
 Alpha  occ. eigenvalues --   -0.38062  -0.37854  -0.37595  -0.37351  -0.36729
 Alpha  occ. eigenvalues --   -0.36414  -0.34780  -0.34624  -0.34306  -0.33489
 Alpha  occ. eigenvalues --   -0.33130  -0.30992  -0.30577  -0.28304  -0.27958
 Alpha  occ. eigenvalues --   -0.27734  -0.26804  -0.26434  -0.25234  -0.25101
 Alpha  occ. eigenvalues --   -0.25053  -0.22472  -0.20368  -0.19804  -0.19406
 Alpha virt. eigenvalues --   -0.09416  -0.03875  -0.03317  -0.00508   0.00149
 Alpha virt. eigenvalues --    0.00375   0.02628   0.02812   0.03256   0.06547
 Alpha virt. eigenvalues --    0.06667   0.06978   0.07815   0.11160   0.12477
 Alpha virt. eigenvalues --    0.12762   0.13384   0.14396   0.14828   0.14892
 Alpha virt. eigenvalues --    0.15562   0.15795   0.16430   0.16818   0.17251
 Alpha virt. eigenvalues --    0.17433   0.17728   0.18122   0.18485   0.18763
 Alpha virt. eigenvalues --    0.19233   0.19582   0.20216   0.20364   0.20600
 Alpha virt. eigenvalues --    0.22009   0.22904   0.23391   0.23992   0.24763
 Alpha virt. eigenvalues --    0.24880   0.25086   0.25866   0.26431   0.26969
 Alpha virt. eigenvalues --    0.27639   0.27958   0.28995   0.29692   0.30022
 Alpha virt. eigenvalues --    0.30214   0.31622   0.32159   0.33958   0.34494
 Alpha virt. eigenvalues --    0.35178   0.35994   0.36685   0.40045   0.41154
 Alpha virt. eigenvalues --    0.42023   0.42658   0.42948   0.44685   0.46866
 Alpha virt. eigenvalues --    0.48399   0.49502   0.50970   0.51801   0.52961
 Alpha virt. eigenvalues --    0.53858   0.53934   0.54906   0.55450   0.55705
 Alpha virt. eigenvalues --    0.56154   0.56958   0.57205   0.58326   0.58437
 Alpha virt. eigenvalues --    0.59048   0.59686   0.60368   0.60398   0.60768
 Alpha virt. eigenvalues --    0.61632   0.61936   0.62575   0.63206   0.63749
 Alpha virt. eigenvalues --    0.64290   0.65285   0.66153   0.66853   0.67766
 Alpha virt. eigenvalues --    0.68677   0.68963   0.69627   0.69755   0.70307
 Alpha virt. eigenvalues --    0.71318   0.71401   0.72736   0.73951   0.74785
 Alpha virt. eigenvalues --    0.75513   0.75767   0.75993   0.77591   0.78541
 Alpha virt. eigenvalues --    0.79819   0.80677   0.82050   0.82392   0.83587
 Alpha virt. eigenvalues --    0.84069   0.84112   0.84928   0.85053   0.85294
 Alpha virt. eigenvalues --    0.85494   0.86138   0.86849   0.87306   0.88122
 Alpha virt. eigenvalues --    0.88311   0.88753   0.89339   0.90063   0.90683
 Alpha virt. eigenvalues --    0.90733   0.91481   0.92101   0.92429   0.93220
 Alpha virt. eigenvalues --    0.93311   0.93948   0.94539   0.94678   0.95477
 Alpha virt. eigenvalues --    0.96148   0.96468   0.97182   0.97893   0.98288
 Alpha virt. eigenvalues --    0.99427   1.00871   1.01306   1.02349   1.02466
 Alpha virt. eigenvalues --    1.03476   1.03813   1.04583   1.05740   1.06007
 Alpha virt. eigenvalues --    1.06750   1.08075   1.08432   1.10366   1.10973
 Alpha virt. eigenvalues --    1.12839   1.13511   1.13915   1.15478   1.16025
 Alpha virt. eigenvalues --    1.16499   1.18994   1.19918   1.20856   1.21549
 Alpha virt. eigenvalues --    1.22074   1.23319   1.24567   1.26234   1.26693
 Alpha virt. eigenvalues --    1.27952   1.28234   1.29000   1.30280   1.31266
 Alpha virt. eigenvalues --    1.33291   1.34747   1.35120   1.36111   1.36442
 Alpha virt. eigenvalues --    1.37165   1.37899   1.38625   1.39016   1.39647
 Alpha virt. eigenvalues --    1.40055   1.40788   1.42562   1.43251   1.44429
 Alpha virt. eigenvalues --    1.44710   1.45736   1.46979   1.47606   1.49828
 Alpha virt. eigenvalues --    1.49941   1.50737   1.51855   1.52843   1.53415
 Alpha virt. eigenvalues --    1.56968   1.57243   1.60753   1.62615   1.64372
 Alpha virt. eigenvalues --    1.65304   1.67326   1.71924   1.74021   1.74839
 Alpha virt. eigenvalues --    1.75396   1.76124   1.76768   1.77821   1.78498
 Alpha virt. eigenvalues --    1.79307   1.79558   1.80443   1.80794   1.81143
 Alpha virt. eigenvalues --    1.81913   1.82671   1.83405   1.84046   1.86212
 Alpha virt. eigenvalues --    1.87015   1.87871   1.88920   1.89897   1.90240
 Alpha virt. eigenvalues --    1.91599   1.92373   1.93350   1.94406   1.95024
 Alpha virt. eigenvalues --    1.96148   1.97435   1.98719   1.99119   2.00135
 Alpha virt. eigenvalues --    2.00366   2.01371   2.02185   2.02673   2.05621
 Alpha virt. eigenvalues --    2.06709   2.08690   2.10566   2.11779   2.12765
 Alpha virt. eigenvalues --    2.12906   2.13746   2.14593   2.14743   2.16026
 Alpha virt. eigenvalues --    2.16484   2.17675   2.18750   2.19231   2.20428
 Alpha virt. eigenvalues --    2.22058   2.23810   2.24152   2.27476   2.28149
 Alpha virt. eigenvalues --    2.28402   2.29388   2.30295   2.31122   2.32009
 Alpha virt. eigenvalues --    2.32860   2.33139   2.33438   2.33822   2.34193
 Alpha virt. eigenvalues --    2.34633   2.35031   2.36331   2.37683   2.38261
 Alpha virt. eigenvalues --    2.41480   2.43991   2.46631   2.48914   2.51656
 Alpha virt. eigenvalues --    2.51768   2.53138   2.53563   2.54287   2.54981
 Alpha virt. eigenvalues --    2.56338   2.57276   2.58676   2.59302   2.60817
 Alpha virt. eigenvalues --    2.63842   2.64217   2.65122   2.66142   2.66473
 Alpha virt. eigenvalues --    2.67563   2.67870   2.71532   2.74545   2.75993
 Alpha virt. eigenvalues --    2.76291   2.77404   2.78539   2.81975   2.85389
 Alpha virt. eigenvalues --    2.87405   2.90803   2.91556   2.93413   2.96621
 Alpha virt. eigenvalues --    3.02586   3.04914   3.06348   3.08864   3.10264
 Alpha virt. eigenvalues --    3.10933   3.21314   3.29687   3.32556   3.46428
 Alpha virt. eigenvalues --   21.74558
          Condensed to atoms (all electrons):
 Mulliken charges:
               1
     1  Co   0.328561
     2  N   -0.171174
     3  O   -0.571462
     4  C    0.330593
     5  C   -0.548055
     6  H    0.199646
     7  H    0.204403
     8  H    0.199158
     9  N   -0.090417
    10  O   -0.549773
    11  C    0.274111
    12  C   -0.549675
    13  H    0.189565
    14  H    0.187297
    15  H    0.186999
    16  N   -0.169249
    17  O   -0.572275
    18  C    0.325620
    19  C   -0.546448
    20  H    0.199111
    21  H    0.200303
    22  H    0.205287
    23  N   -0.064095
    24  O   -0.555060
    25  C    0.268228
    26  C   -0.546939
    27  H    0.190428
    28  H    0.189626
    29  H    0.186926
    30  H    0.469729
    31  H    0.471996
    32  C   -0.396759
    33  H    0.186188
    34  H    0.190563
    35  C    0.236379
    36  C   -0.267682
    37  H    0.153759
    38  C   -0.557779
    39  H    0.194104
    40  H    0.164655
    41  H    0.163234
    42  C    0.149598
    43  C   -0.203758
    44  C   -0.202168
    45  C   -0.154054
    46  H    0.153525
    47  C   -0.159085
    48  H    0.165554
    49  C   -0.151232
    50  H    0.154198
    51  H    0.154155
    52  H    0.153638
 Sum of Mulliken charges =  -0.00000
 Mulliken charges with hydrogens summed into heavy atoms:
               1
     1  Co   0.328561
     2  N   -0.171174
     3  O   -0.101733
     4  C    0.330593
     5  C    0.055152
     9  N   -0.090417
    10  O   -0.549773
    11  C    0.274111
    12  C    0.014186
    16  N   -0.169249
    17  O   -0.100279
    18  C    0.325620
    19  C    0.058253
    23  N   -0.064095
    24  O   -0.555060
    25  C    0.268228
    26  C    0.020043
    32  C   -0.020007
    35  C    0.236379
    36  C   -0.113923
    38  C   -0.035786
    42  C    0.149598
    43  C   -0.050233
    44  C   -0.036614
    45  C    0.000144
    47  C   -0.004930
    49  C    0.002406
 Electronic spatial extent (au):  <R**2>=          10289.2241
 Charge=             -0.0000 electrons
 Dipole moment (field-independent basis, Debye):
    X=             -0.1743    Y=              0.1588    Z=              0.9101  Tot=              0.9401
 Quadrupole moment (field-independent basis, Debye-Ang):
   XX=           -133.4120   YY=           -173.5295   ZZ=           -164.2402
   XY=             13.6755   XZ=              5.2984   YZ=             10.9059
 Traceless Quadrupole moment (field-independent basis, Debye-Ang):
   XX=             23.6486   YY=            -16.4689   ZZ=             -7.1796
   XY=             13.6755   XZ=              5.2984   YZ=             10.9059
 Octapole moment (field-independent basis, Debye-Ang**2):
  XXX=           -115.8000  YYY=              6.8944  ZZZ=             26.6330  XYY=              3.5467
  XXY=            -33.2842  XXZ=             -3.1382  XZZ=            -14.4679  YZZ=             26.9600
  YYZ=             15.4094  XYZ=            -28.7123
 Hexadecapole moment (field-independent basis, Debye-Ang**3):
 XXXX=          -8117.1498 YYYY=          -2473.6223 ZZZZ=          -1802.4421 XXXY=            160.3572
 XXXZ=             25.6619 YYYX=             51.6563 YYYZ=             19.8665 ZZZX=             44.6868
 ZZZY=              9.8581 XXYY=          -1971.7315 XXZZ=          -1848.4473 YYZZ=           -690.1802
 XXYZ=            -36.4697 YYXZ=             33.4276 ZZXY=             65.1393
 N-N= 3.011473882256D+03 E-N=-9.214294379429D+03  KE= 1.300237403563D+03
 Unable to Open any file for archive entry.
 1\1\GINC-N204\SP\RB3LYP\GenECP\C18H25Co1N4O4\CJD\02-Mar-2023\0\\# B3LY
 P/genecp em=GD3BJ int=fine scrf=(smd,solvent=acetone)\\Template\\0,1\C
 o,0,-1.0078091827,-0.4798708563,-0.7826220005\N,0,-1.2328002511,1.3565
 487257,-0.4379666886\O,0,-1.298552313,2.3495143241,-1.3743058538\C,0,-
 1.3361366702,1.6728382635,0.8125207761\C,0,-1.5394283568,3.0638016597,
 1.3070881019\H,0,-1.7123440216,3.7300517327,0.4659630035\H,0,-0.653482
 8589,3.3931660718,1.8475885571\H,0,-2.3860757652,3.1036934411,1.988785
 1773\N,0,-0.9505199549,-0.575862878,1.109838008\O,0,-0.7729007518,-1.6
 723131909,1.7827602483\C,0,-1.1966062813,0.5542988111,1.7109096347\C,0
 ,-1.2887411498,0.6975155177,3.1962210257\H,0,-1.1264646927,-0.27828805
 36,3.6494099161\H,0,-2.2701593685,1.0669909611,3.4893971483\H,0,-0.534
 4487681,1.3927305254,3.5596625612\N,0,-1.03104698,-2.3314563608,-1.078
 6558587\O,0,-0.7613500651,-3.3008932587,-0.158220685\C,0,-1.3590206694
 ,-2.6860811433,-2.280225544\C,0,-1.4776881921,-4.1031841577,-2.7263975
 629\H,0,-2.4189061177,-4.2591055373,-3.2480312482\H,0,-1.4174278706,-4
 .7634359398,-1.8650343977\H,0,-0.6660056274,-4.3416042768,-3.412029027
 1\N,0,-1.3895190511,-0.4109362825,-2.6208779681\O,0,-1.5422886882,0.69
 01080565,-3.282103647\C,0,-1.5809874193,-1.5763216376,-3.1736934868\C,
 0,-1.9741277847,-1.7547702391,-4.6052714367\H,0,-2.0026152916,-0.77590
 42524,-5.0794882754\H,0,-2.9584195171,-2.2144515643,-4.6825773295\H,0,
 -1.2559228483,-2.3866019727,-5.1235373952\H,0,-1.3838490721,1.84248287
 47,-2.2687517238\H,0,-0.7081992102,-2.7873729928,0.7394383173\C,0,0.96
 16315716,-0.2805093013,-1.2066900939\H,0,1.2148916523,-1.1816892633,-1
 .7634329843\H,0,0.9855169824,0.6027600516,-1.8438530296\C,0,1.72866260
 68,-0.1272731457,0.0148150881\C,0,2.0001554516,1.1257680378,0.46736939
 87\H,0,1.6765650568,1.9501125545,-0.1573740675\C,0,2.2412642281,-1.375
 4597064,0.6704726992\H,0,1.5189072117,-1.7547110149,1.3921284672\H,0,2
 .3919997414,-2.1526023883,-0.0745535093\H,0,3.1795121249,-1.1874323372
 ,1.1851305469\C,0,2.7079220332,1.5352913824,1.6620026282\C,0,3.3968322
 332,2.7557436813,1.645307652\C,0,2.6954098922,0.804572781,2.8546740176
 \C,0,4.0821830283,3.2027242674,2.7566222476\H,0,3.4010246324,3.3427868
 475,0.7380021953\C,0,3.369613251,1.2640848819,3.9707106261\H,0,2.11709
 92888,-0.1014777022,2.9208659022\C,0,4.076378047,2.4552908358,3.925305
 2856\H,0,4.6187939046,4.1396239246,2.7175972306\H,0,3.3409584267,0.689
 4526352,4.8852768686\H,0,4.6084797412,2.8058803236,4.7972079095\\Versi
 on=ES64L-G16RevC.01\State=1-A\HF=-1365.9337963\RMSD=6.164e-09\Dipole=-
 0.3211136,-0.0375724,0.1796762\Quadrupole=-2.7467469,0.5336602,2.21308
 67,5.0612307,1.8261714,19.8266753\PG=C01 [X(C18H25Co1N4O4)]\\@
 The archive entry for this job was punched.


 COLLEGE PROFESSOR: SOMEONE WHO TALKS IN OTHER PEOPLE'S SLEEP.
 Job cpu time:       0 days  0 hours 21 minutes  2.3 seconds.
 Elapsed time:       0 days  0 hours  1 minutes 21.2 seconds.
 File lengths (MBytes):  RWF=    330 Int=      0 D2E=      0 Chk=     14 Scr=      1
 Normal termination of Gaussian 16 at Thu Mar  2 08:04:54 2023.
