 Entering Gaussian System, Link 0=g16
 Initial command:
 /opt/local/g16/l1.exe "/data/tmp/cjd/Gau-61568.inp" -scrdir="/data/tmp/cjd/"
 Entering Link 1 = /opt/local/g16/l1.exe PID=     61569.
  
 Copyright (c) 1988-2019, Gaussian, Inc.  All Rights Reserved.
  
 This is part of the Gaussian(R) 16 program.  It is based on
 the Gaussian(R) 09 system (copyright 2009, Gaussian, Inc.),
 the Gaussian(R) 03 system (copyright 2003, Gaussian, Inc.),
 the Gaussian(R) 98 system (copyright 1998, Gaussian, Inc.),
 the Gaussian(R) 94 system (copyright 1995, Gaussian, Inc.),
 the Gaussian 92(TM) system (copyright 1992, Gaussian, Inc.),
 the Gaussian 90(TM) system (copyright 1990, Gaussian, Inc.),
 the Gaussian 88(TM) system (copyright 1988, Gaussian, Inc.),
 the Gaussian 86(TM) system (copyright 1986, Carnegie Mellon
 University), and the Gaussian 82(TM) system (copyright 1983,
 Carnegie Mellon University). Gaussian is a federally registered
 trademark of Gaussian, Inc.
  
 This software contains proprietary and confidential information,
 including trade secrets, belonging to Gaussian, Inc.
  
 This software is provided under written license and may be
 used, copied, transmitted, or stored only in accord with that
 written license.
  
 The following legend is applicable only to US Government
 contracts under FAR:
  
                    RESTRICTED RIGHTS LEGEND
  
 Use, reproduction and disclosure by the US Government is
 subject to restrictions as set forth in subparagraphs (a)
 and (c) of the Commercial Computer Software - Restricted
 Rights clause in FAR 52.227-19.
  
 Gaussian, Inc.
 340 Quinnipiac St., Bldg. 40, Wallingford CT 06492
  
  
 ---------------------------------------------------------------
 Warning -- This program may not be used in any manner that
 competes with the business of Gaussian, Inc. or will provide
 assistance to any competitor of Gaussian, Inc.  The licensee
 of this program is prohibited from giving any competitor of
 Gaussian, Inc. access to this program.  By using this program,
 the user acknowledges that Gaussian, Inc. is engaged in the
 business of creating and licensing software in the field of
 computational chemistry and represents and warrants to the
 licensee that it is not a competitor of Gaussian, Inc. and that
 it will not use this program in any manner prohibited above.
 ---------------------------------------------------------------
  

 Cite this work as:
 Gaussian 16, Revision C.01,
 M. J. Frisch, G. W. Trucks, H. B. Schlegel, G. E. Scuseria, 
 M. A. Robb, J. R. Cheeseman, G. Scalmani, V. Barone, 
 G. A. Petersson, H. Nakatsuji, X. Li, M. Caricato, A. V. Marenich, 
 J. Bloino, B. G. Janesko, R. Gomperts, B. Mennucci, H. P. Hratchian, 
 J. V. Ortiz, A. F. Izmaylov, J. L. Sonnenberg, D. Williams-Young, 
 F. Ding, F. Lipparini, F. Egidi, J. Goings, B. Peng, A. Petrone, 
 T. Henderson, D. Ranasinghe, V. G. Zakrzewski, J. Gao, N. Rega, 
 G. Zheng, W. Liang, M. Hada, M. Ehara, K. Toyota, R. Fukuda, 
 J. Hasegawa, M. Ishida, T. Nakajima, Y. Honda, O. Kitao, H. Nakai, 
 T. Vreven, K. Throssell, J. A. Montgomery, Jr., J. E. Peralta, 
 F. Ogliaro, M. J. Bearpark, J. J. Heyd, E. N. Brothers, K. N. Kudin, 
 V. N. Staroverov, T. A. Keith, R. Kobayashi, J. Normand, 
 K. Raghavachari, A. P. Rendell, J. C. Burant, S. S. Iyengar, 
 J. Tomasi, M. Cossi, J. M. Millam, M. Klene, C. Adamo, R. Cammi, 
 J. W. Ochterski, R. L. Martin, K. Morokuma, O. Farkas, 
 J. B. Foresman, and D. J. Fox, Gaussian, Inc., Wallingford CT, 2019.
 
 ******************************************
 Gaussian 16:  ES64L-G16RevC.01  3-Jul-2019
                 2-Mar-2023 
 ******************************************
 %nproc=16
 Will use up to   16 processors via shared memory.
 %mem=60GB
 -----------------------------------------------------------
 # B3LYP/genecp em=GD3BJ int=fine scrf=(smd,solvent=acetone)
 -----------------------------------------------------------
 1/38=1,172=1/1;
 2/12=2,17=6,18=5,40=1/2;
 3/5=7,11=2,16=1,17=8,25=1,30=1,70=32201,72=19,74=-5,75=-4,124=41/1,2,3;
 4//1;
 5/5=2,38=5,53=19/2;
 6/7=2,8=2,9=2,10=2,28=1/1;
 99/5=1,9=1/99;
 --------
 Template
 --------
 Symbolic Z-matrix:
 Charge =  0 Multiplicity = 1
 Co                   -1.03089  -0.40416  -0.80617 
 N                    -1.41274   1.39455  -0.40947 
 O                    -1.58352   2.40092  -1.31843 
 C                    -1.51419   1.67114   0.85063 
 C                    -1.82603   3.02775   1.38312 
 H                    -2.08982   3.69126   0.56357 
 H                    -0.95399   3.42706   1.89877 
 H                    -2.64642   2.97641   2.09526 
 N                    -0.92867  -0.54167   1.08533 
 O                    -0.65084  -1.63606   1.726 
 C                    -1.26099   0.54825   1.71841 
 C                    -1.34382   0.64797   3.20793 
 H                    -1.0482   -0.30743   3.63618 
 H                    -2.36045   0.8786    3.52362 
 H                    -0.6817    1.42841   3.57718 
 N                    -0.89196  -2.24193  -1.15041 
 O                    -0.52983  -3.20607  -0.25696 
 C                    -1.19442  -2.59411  -2.35932 
 C                    -1.18008  -4.00374  -2.84344 
 H                    -2.11541  -4.24254  -3.34402 
 H                    -1.02795  -4.67652  -2.00343 
 H                    -0.36918  -4.1389   -3.55743 
 N                    -1.45259  -0.32435  -2.63536 
 O                    -1.72824   0.77277  -3.26207 
 C                    -1.53461  -1.48772  -3.21891 
 C                    -1.93049  -1.66629  -4.64972 
 H                    -2.86425  -2.22146  -4.72693 
 H                    -1.16054  -2.20793  -5.19515 
 H                    -2.06541  -0.68307  -5.09567 
 H                    -1.64771   1.9096   -2.2236 
 H                    -0.5155   -2.71126   0.65329 
 C                     0.90258  -0.01529  -1.26219 
 H                     1.17876  -0.79374  -1.9721 
 H                     0.85161   0.9608   -1.74328 
 C                     1.71448  -0.02526  -0.06085 
 C                     1.95617   1.14902   0.58175 
 H                     1.56226   2.04488   0.11572 
 C                     2.29956  -1.3392    0.36474 
 H                     2.37159  -2.01174  -0.48589 
 H                     3.28728  -1.20154   0.79686 
 H                     1.66024  -1.81722   1.10545 
 C                     2.71943   1.40124   1.7851 
 C                     2.86246   0.47741   2.8262 
 C                     3.31411   2.66161   1.9407 
 C                     3.59494   0.79361   3.95517 
 H                     2.35957  -0.47278   2.77424 
 C                     4.05689   2.96766   3.06258 
 H                     3.19892   3.39594   1.15609 
 C                     4.20685   2.03107   4.07494 
 H                     3.68694   0.06818   4.75064 
 H                     4.5176    3.94059   3.15464 
 H                     4.78543   2.26948   4.95512 
 
 Stoichiometry    C18H25CoN4O4
 Framework group  C1[X(C18H25CoN4O4)]
 Deg. of freedom   150
 Full point group                 C1      NOp   1
 Largest Abelian subgroup         C1      NOp   1
 Largest concise Abelian subgroup C1      NOp   1
                         Standard orientation:                         
 ---------------------------------------------------------------------
 Center     Atomic      Atomic             Coordinates (Angstroms)
 Number     Number       Type             X           Y           Z
 ---------------------------------------------------------------------
      1         27           0       -1.348567    0.309927    0.235165
      2          7           0       -0.505738    1.984025    0.075305
      3          8           0       -0.823701    2.963090   -0.823855
      4          6           0        0.462493    2.194955    0.907587
      5          6           0        1.252804    3.457291    0.963308
      6          1           0        0.801830    4.200931    0.311307
      7          1           0        2.272437    3.264734    0.633047
      8          1           0        1.292652    3.835251    1.982316
      9          7           0        0.008755    0.027692    1.533301
     10          8           0        0.155040   -1.068422    2.213341
     11          6           0        0.746393    1.075859    1.770744
     12          6           0        1.814338    1.117041    2.816339
     13          1           0        1.876963    0.137945    3.286476
     14          1           0        1.581727    1.861262    3.576875
     15          1           0        2.776072    1.365446    2.372272
     16          7           0       -2.303674   -1.262597    0.595947
     17          8           0       -1.873820   -2.313739    1.350448
     18          6           0       -3.489013   -1.311282    0.076740
     19          6           0       -4.430437   -2.452545    0.258002
     20          1           0       -5.405511   -2.092946    0.577962
     21          1           0       -4.029994   -3.142136    0.996587
     22          1           0       -4.556363   -2.978754   -0.686911
     23          7           0       -2.861039    0.720928   -0.801001
     24          8           0       -2.994938    1.817250   -1.473737
     25          6           0       -3.821800   -0.157253   -0.720876
     26          6           0       -5.143894    0.002823   -1.400785
     27          1           0       -5.948666    0.075901   -0.670658
     28          1           0       -5.344488   -0.845217   -2.052153
     29          1           0       -5.119186    0.915355   -1.992787
     30          1           0       -1.719257    2.647628   -1.227987
     31          1           0       -1.000498   -1.967616    1.787584
     32          6           0       -0.449426   -0.432029   -1.419685
     33          1           0       -1.140271   -1.187363   -1.791762
     34          1           0       -0.406953    0.429402   -2.085221
     35          6           0        0.855596   -0.968350   -1.085362
     36          6           0        1.951084   -0.174606   -1.227264
     37          1           0        1.781962    0.813029   -1.640668
     38          6           0        0.922235   -2.405836   -0.662201
     39          1           0        0.063359   -2.950603   -1.045132
     40          1           0        1.833700   -2.874279   -1.024235
     41          1           0        0.900001   -2.483201    0.423803
     42          6           0        3.342687   -0.467574   -0.959239
     43          6           0        3.775634   -1.370752    0.017810
     44          6           0        4.318515    0.226918   -1.688515
     45          6           0        5.124162   -1.589274    0.229485
     46          1           0        3.057002   -1.867441    0.646571
     47          6           0        5.663259   -0.005355   -1.484325
     48          1           0        4.004416    0.943152   -2.434486
     49          6           0        6.073913   -0.921271   -0.526704
     50          1           0        5.437129   -2.285750    0.993983
     51          1           0        6.397279    0.531467   -2.067735
     52          1           0        7.125926   -1.102557   -0.363299
 ---------------------------------------------------------------------
 Rotational constants (GHZ):           0.3199183           0.1223832           0.1119922
 General basis read from cards:  (5D, 7F)
 ======================================================================================================
                                       Pseudopotential Parameters
 ======================================================================================================
  Center     Atomic      Valence      Angular      Power
  Number     Number     Electrons     Momentum     of R      Exponent        Coefficient   SO-Coeffient
 ======================================================================================================
    1         27           17
                                      D and up 
                                                     1      434.1076104      -10.00000000    0.00000000
                                                     2       78.8402758      -66.72402760    0.00000000
                                                     2       19.6037749      -11.71922430    0.00000000
                                      S - D
                                                     0      151.2307582        3.00000000    0.00000000
                                                     1      169.6790026       20.15531100    0.00000000
                                                     2       64.9909423      413.37622440    0.00000000
                                                     2       12.5076287      133.87277050    0.00000000
                                      P - D
                                                     0       92.7319924        5.00000000    0.00000000
                                                     1      121.1910183        6.18923530    0.00000000
                                                     2       48.6265909      326.32159190    0.00000000
                                                     2       11.9966971       73.87889700    0.00000000
    2          7
                                   No pseudopotential on this center.
    3          8
                                   No pseudopotential on this center.
    4          6
                                   No pseudopotential on this center.
    5          6
                                   No pseudopotential on this center.
    6          1
                                   No pseudopotential on this center.
    7          1
                                   No pseudopotential on this center.
    8          1
                                   No pseudopotential on this center.
    9          7
                                   No pseudopotential on this center.
   10          8
                                   No pseudopotential on this center.
   11          6
                                   No pseudopotential on this center.
   12          6
                                   No pseudopotential on this center.
   13          1
                                   No pseudopotential on this center.
   14          1
                                   No pseudopotential on this center.
   15          1
                                   No pseudopotential on this center.
   16          7
                                   No pseudopotential on this center.
   17          8
                                   No pseudopotential on this center.
   18          6
                                   No pseudopotential on this center.
   19          6
                                   No pseudopotential on this center.
   20          1
                                   No pseudopotential on this center.
   21          1
                                   No pseudopotential on this center.
   22          1
                                   No pseudopotential on this center.
   23          7
                                   No pseudopotential on this center.
   24          8
                                   No pseudopotential on this center.
   25          6
                                   No pseudopotential on this center.
   26          6
                                   No pseudopotential on this center.
   27          1
                                   No pseudopotential on this center.
   28          1
                                   No pseudopotential on this center.
   29          1
                                   No pseudopotential on this center.
   30          1
                                   No pseudopotential on this center.
   31          1
                                   No pseudopotential on this center.
   32          6
                                   No pseudopotential on this center.
   33          1
                                   No pseudopotential on this center.
   34          1
                                   No pseudopotential on this center.
   35          6
                                   No pseudopotential on this center.
   36          6
                                   No pseudopotential on this center.
   37          1
                                   No pseudopotential on this center.
   38          6
                                   No pseudopotential on this center.
   39          1
                                   No pseudopotential on this center.
   40          1
                                   No pseudopotential on this center.
   41          1
                                   No pseudopotential on this center.
   42          6
                                   No pseudopotential on this center.
   43          6
                                   No pseudopotential on this center.
   44          6
                                   No pseudopotential on this center.
   45          6
                                   No pseudopotential on this center.
   46          1
                                   No pseudopotential on this center.
   47          6
                                   No pseudopotential on this center.
   48          1
                                   No pseudopotential on this center.
   49          6
                                   No pseudopotential on this center.
   50          1
                                   No pseudopotential on this center.
   51          1
                                   No pseudopotential on this center.
   52          1
                                   No pseudopotential on this center.
 ======================================================================================================
 There are   464 symmetry adapted cartesian basis functions of A   symmetry.
 There are   436 symmetry adapted basis functions of A   symmetry.
   436 basis functions,   880 primitive gaussians,   464 cartesian basis functions
   105 alpha electrons      105 beta electrons
       nuclear repulsion energy      3006.0970593959 Hartrees.
 NAtoms=   52 NActive=   52 NUniq=   52 SFac= 1.00D+00 NAtFMM=   60 NAOKFM=F Big=F
 Integral buffers will be    131072 words long.
 Raffenetti 2 integral format.
 Two-electron integral symmetry is turned on.
 Nuclear repulsion after empirical dispersion term =     3005.9723757584 Hartrees.
 ------------------------------------------------------------------------------
 Polarizable Continuum Model (PCM)
 =================================
 Model                : PCM.
 Atomic radii         : SMD-Coulomb.
 Polarization charges : Total charges.
 Charge compensation  : None.
 Solution method      : On-the-fly selection.
 Cavity type          : VdW (van der Waals Surface) (Alpha=1.000).
 Cavity algorithm     : GePol (No added spheres)
                        Default sphere list used, NSphG=   52.
                        Lebedev-Laikov grids with approx.  5.0 points / Ang**2.
                        Smoothing algorithm: York/Karplus (Gamma=1.0000).
                        Polarization charges: spherical gaussians, with
                                              point-specific exponents (IZeta= 3).
                        Self-potential: point-specific (ISelfS= 7).
                        Self-field    : sphere-specific E.n sum rule (ISelfD= 2).
 Solvent              : Acetone, Eps=  20.493000 Eps(inf)=   1.846337
 ------------------------------------------------------------------------------
 ------------------------------------------------------------------------------
 Atomic radii for non-electrostatic terms: SMD-CDS.
 ------------------------------------------------------------------------------
 Nuclear repulsion after PCM non-electrostatic terms =     3005.9659157626 Hartrees.
 One-electron integrals computed using PRISM.
   1 Symmetry operations used in ECPInt.
 ECPInt:  NShTT=   13203 NPrTT=   81964 LenC2=   11373 LenP2D=   39406.
 LDataN:  DoStor=T MaxTD1= 4 Len=   56
 NBasis=   436 RedAO= T EigKep=  4.34D-04  NBF=   436
 NBsUse=   436 1.00D-06 EigRej= -1.00D+00 NBFU=   436
 ExpMin= 2.30D-02 ExpMax= 5.48D+03 ExpMxC= 8.25D+02 IAcc=3 IRadAn=         5 AccDes= 0.00D+00
 Harris functional with IExCor=  402 and IRadAn=       5 diagonalized for initial guess.
 HarFok:  IExCor=  402 AccDes= 0.00D+00 IRadAn=         5 IDoV= 1 UseB2=F ITyADJ=14
 ICtDFT=  3500011 ScaDFX=  1.000000  1.000000  1.000000  1.000000
 FoFCou: FMM=F IPFlag=           0 FMFlag=      100000 FMFlg1=           0
         NFxFlg=           0 DoJE=T BraDBF=F KetDBF=T FulRan=T
         wScrn=  0.000000 ICntrl=       500 IOpCl=  0 I1Cent=   200000004 NGrid=           0
         NMat0=    1 NMatS0=      1 NMatT0=    0 NMatD0=    1 NMtDS0=    0 NMtDT0=    0
 Petite list used in FoFCou.
 Requested convergence on RMS density matrix=1.00D-08 within 128 cycles.
 Requested convergence on MAX density matrix=1.00D-06.
 Requested convergence on             energy=1.00D-06.
 No special actions if energy rises.
 Inv3:  Mode=1 IEnd=    40693467.
 Iteration    1 A*A^-1 deviation from unit magnitude is 3.33D-15 for    198.
 Iteration    1 A*A^-1 deviation from orthogonality  is 3.34D-15 for   1040     79.
 Iteration    1 A^-1*A deviation from unit magnitude is 3.33D-15 for    198.
 Iteration    1 A^-1*A deviation from orthogonality  is 2.11D-15 for   2239    747.
 EnCoef did     4 forward-backward iterations
 Error on total polarization charges =  0.04502
 SCF Done:  E(RB3LYP) =  -1365.93370470     A.U. after   20 cycles
            NFock= 20  Conv=0.65D-08     -V/T= 2.0505
 SMD-CDS (non-electrostatic) energy       (kcal/mol) =      -4.05
 (included in total energy above)

 **********************************************************************

            Population analysis using the SCF Density.

 **********************************************************************

 Orbital symmetries:
       Occupied  (A) (A) (A) (A) (A) (A) (A) (A) (A) (A) (A) (A)
                 (A) (A) (A) (A) (A) (A) (A) (A) (A) (A) (A) (A)
                 (A) (A) (A) (A) (A) (A) (A) (A) (A) (A) (A) (A)
                 (A) (A) (A) (A) (A) (A) (A) (A) (A) (A) (A) (A)
                 (A) (A) (A) (A) (A) (A) (A) (A) (A) (A) (A) (A)
                 (A) (A) (A) (A) (A) (A) (A) (A) (A) (A) (A) (A)
                 (A) (A) (A) (A) (A) (A) (A) (A) (A) (A) (A) (A)
                 (A) (A) (A) (A) (A) (A) (A) (A) (A) (A) (A) (A)
                 (A) (A) (A) (A) (A) (A) (A) (A) (A)
       Virtual   (A) (A) (A) (A) (A) (A) (A) (A) (A) (A) (A) (A)
                 (A) (A) (A) (A) (A) (A) (A) (A) (A) (A) (A) (A)
                 (A) (A) (A) (A) (A) (A) (A) (A) (A) (A) (A) (A)
                 (A) (A) (A) (A) (A) (A) (A) (A) (A) (A) (A) (A)
                 (A) (A) (A) (A) (A) (A) (A) (A) (A) (A) (A) (A)
                 (A) (A) (A) (A) (A) (A) (A) (A) (A) (A) (A) (A)
                 (A) (A) (A) (A) (A) (A) (A) (A) (A) (A) (A) (A)
                 (A) (A) (A) (A) (A) (A) (A) (A) (A) (A) (A) (A)
                 (A) (A) (A) (A) (A) (A) (A) (A) (A) (A) (A) (A)
                 (A) (A) (A) (A) (A) (A) (A) (A) (A) (A) (A) (A)
                 (A) (A) (A) (A) (A) (A) (A) (A) (A) (A) (A) (A)
                 (A) (A) (A) (A) (A) (A) (A) (A) (A) (A) (A) (A)
                 (A) (A) (A) (A) (A) (A) (A) (A) (A) (A) (A) (A)
                 (A) (A) (A) (A) (A) (A) (A) (A) (A) (A) (A) (A)
                 (A) (A) (A) (A) (A) (A) (A) (A) (A) (A) (A) (A)
                 (A) (A) (A) (A) (A) (A) (A) (A) (A) (A) (A) (A)
                 (A) (A) (A) (A) (A) (A) (A) (A) (A) (A) (A) (A)
                 (A) (A) (A) (A) (A) (A) (A) (A) (A) (A) (A) (A)
                 (A) (A) (A) (A) (A) (A) (A) (A) (A) (A) (A) (A)
                 (A) (A) (A) (A) (A) (A) (A) (A) (A) (A) (A) (A)
                 (A) (A) (A) (A) (A) (A) (A) (A) (A) (A) (A) (A)
                 (A) (A) (A) (A) (A) (A) (A) (A) (A) (A) (A) (A)
                 (A) (A) (A) (A) (A) (A) (A) (A) (A) (A) (A) (A)
                 (A) (A) (A) (A) (A) (A) (A) (A) (A) (A) (A) (A)
                 (A) (A) (A) (A) (A) (A) (A) (A) (A) (A) (A) (A)
                 (A) (A) (A) (A) (A) (A) (A) (A) (A) (A) (A) (A)
                 (A) (A) (A) (A) (A) (A) (A) (A) (A) (A) (A) (A)
                 (A) (A) (A) (A) (A) (A) (A)
 The electronic state is 1-A.
 Alpha  occ. eigenvalues --  -19.16691 -19.16602 -19.12821 -19.12818 -14.41192
 Alpha  occ. eigenvalues --  -14.40848 -14.40539 -14.40475 -10.23652 -10.23585
 Alpha  occ. eigenvalues --  -10.21321 -10.21198 -10.18676 -10.18542 -10.17618
 Alpha  occ. eigenvalues --  -10.17586 -10.17552 -10.17523 -10.17470 -10.17467
 Alpha  occ. eigenvalues --  -10.17464 -10.17428 -10.17127 -10.16826 -10.16732
 Alpha  occ. eigenvalues --  -10.15423  -3.74513  -2.44554  -2.43728  -2.42672
 Alpha  occ. eigenvalues --   -1.09092  -1.08541  -1.07021  -1.06421  -0.90630
 Alpha  occ. eigenvalues --   -0.89446  -0.85851  -0.81920  -0.81004  -0.80613
 Alpha  occ. eigenvalues --   -0.75375  -0.74663  -0.74270  -0.74205  -0.70645
 Alpha  occ. eigenvalues --   -0.70505  -0.68364  -0.66442  -0.62331  -0.60339
 Alpha  occ. eigenvalues --   -0.60131  -0.58855  -0.54922  -0.53625  -0.52987
 Alpha  occ. eigenvalues --   -0.52120  -0.51380  -0.50905  -0.49419  -0.49076
 Alpha  occ. eigenvalues --   -0.47726  -0.46907  -0.46661  -0.46012  -0.45673
 Alpha  occ. eigenvalues --   -0.44549  -0.43419  -0.42758  -0.42445  -0.42253
 Alpha  occ. eigenvalues --   -0.42073  -0.41945  -0.41411  -0.40880  -0.40592
 Alpha  occ. eigenvalues --   -0.40177  -0.39535  -0.38957  -0.38837  -0.38185
 Alpha  occ. eigenvalues --   -0.38064  -0.37903  -0.37580  -0.37337  -0.36798
 Alpha  occ. eigenvalues --   -0.36421  -0.34731  -0.34631  -0.34305  -0.33436
 Alpha  occ. eigenvalues --   -0.33128  -0.30968  -0.30595  -0.28279  -0.27936
 Alpha  occ. eigenvalues --   -0.27721  -0.26884  -0.26400  -0.25204  -0.25085
 Alpha  occ. eigenvalues --   -0.25035  -0.22464  -0.20350  -0.19781  -0.19347
 Alpha virt. eigenvalues --   -0.09368  -0.03852  -0.03349  -0.00492   0.00202
 Alpha virt. eigenvalues --    0.00411   0.02634   0.02798   0.03250   0.06484
 Alpha virt. eigenvalues --    0.06659   0.07025   0.07836   0.11155   0.12426
 Alpha virt. eigenvalues --    0.12777   0.13349   0.14391   0.14876   0.15047
 Alpha virt. eigenvalues --    0.15460   0.15796   0.16433   0.16881   0.17223
 Alpha virt. eigenvalues --    0.17466   0.17736   0.18180   0.18450   0.18713
 Alpha virt. eigenvalues --    0.19251   0.19711   0.20173   0.20320   0.20465
 Alpha virt. eigenvalues --    0.21965   0.22970   0.23321   0.24033   0.24801
 Alpha virt. eigenvalues --    0.24908   0.25001   0.26057   0.26509   0.26952
 Alpha virt. eigenvalues --    0.27795   0.27872   0.28800   0.29770   0.30055
 Alpha virt. eigenvalues --    0.30387   0.31696   0.32312   0.34079   0.34551
 Alpha virt. eigenvalues --    0.35331   0.35955   0.36658   0.40131   0.41235
 Alpha virt. eigenvalues --    0.42040   0.42637   0.43050   0.44684   0.46743
 Alpha virt. eigenvalues --    0.48761   0.49502   0.50948   0.51710   0.52929
 Alpha virt. eigenvalues --    0.53773   0.54093   0.55344   0.55614   0.55970
 Alpha virt. eigenvalues --    0.56166   0.57026   0.57314   0.58041   0.58455
 Alpha virt. eigenvalues --    0.59130   0.59759   0.60192   0.60405   0.60787
 Alpha virt. eigenvalues --    0.61489   0.61743   0.62675   0.63237   0.63780
 Alpha virt. eigenvalues --    0.63975   0.65370   0.65920   0.66605   0.67630
 Alpha virt. eigenvalues --    0.68810   0.69207   0.69429   0.69555   0.70311
 Alpha virt. eigenvalues --    0.70864   0.71532   0.72342   0.73789   0.74808
 Alpha virt. eigenvalues --    0.75475   0.75574   0.76232   0.76874   0.78173
 Alpha virt. eigenvalues --    0.79692   0.80832   0.82136   0.82550   0.83629
 Alpha virt. eigenvalues --    0.83795   0.84233   0.84777   0.85034   0.85399
 Alpha virt. eigenvalues --    0.85786   0.86371   0.86911   0.87427   0.87782
 Alpha virt. eigenvalues --    0.88164   0.89063   0.89880   0.90080   0.90253
 Alpha virt. eigenvalues --    0.90769   0.91302   0.91881   0.92160   0.93053
 Alpha virt. eigenvalues --    0.93332   0.93591   0.94404   0.94631   0.95675
 Alpha virt. eigenvalues --    0.95954   0.96203   0.97140   0.97834   0.98145
 Alpha virt. eigenvalues --    0.99194   1.00895   1.01636   1.02064   1.02723
 Alpha virt. eigenvalues --    1.03002   1.03636   1.04586   1.05408   1.05723
 Alpha virt. eigenvalues --    1.06190   1.07819   1.09260   1.09990   1.11091
 Alpha virt. eigenvalues --    1.12522   1.13224   1.13980   1.15144   1.16143
 Alpha virt. eigenvalues --    1.16578   1.18906   1.19930   1.20363   1.21839
 Alpha virt. eigenvalues --    1.22238   1.23929   1.24474   1.26207   1.26964
 Alpha virt. eigenvalues --    1.28350   1.28702   1.29540   1.30217   1.31408
 Alpha virt. eigenvalues --    1.33229   1.34861   1.34985   1.35738   1.36484
 Alpha virt. eigenvalues --    1.36977   1.38058   1.38574   1.38983   1.39487
 Alpha virt. eigenvalues --    1.39966   1.40847   1.42326   1.43596   1.44311
 Alpha virt. eigenvalues --    1.44549   1.45747   1.46735   1.47372   1.49878
 Alpha virt. eigenvalues --    1.50006   1.50771   1.51785   1.52498   1.53446
 Alpha virt. eigenvalues --    1.56846   1.57519   1.60931   1.62809   1.63255
 Alpha virt. eigenvalues --    1.65613   1.67230   1.71552   1.74028   1.74767
 Alpha virt. eigenvalues --    1.75411   1.76004   1.76694   1.77974   1.78324
 Alpha virt. eigenvalues --    1.79202   1.79480   1.80341   1.80956   1.81049
 Alpha virt. eigenvalues --    1.82109   1.82541   1.82979   1.83920   1.85923
 Alpha virt. eigenvalues --    1.87234   1.88180   1.88834   1.89907   1.90314
 Alpha virt. eigenvalues --    1.91486   1.92068   1.93114   1.94247   1.95053
 Alpha virt. eigenvalues --    1.96129   1.97368   1.98830   1.99129   1.99991
 Alpha virt. eigenvalues --    2.00267   2.01040   2.02371   2.03080   2.05658
 Alpha virt. eigenvalues --    2.06510   2.08847   2.10617   2.11643   2.12643
 Alpha virt. eigenvalues --    2.12774   2.14215   2.14646   2.14830   2.15880
 Alpha virt. eigenvalues --    2.16482   2.17849   2.18596   2.19229   2.20476
 Alpha virt. eigenvalues --    2.22747   2.23856   2.24069   2.27788   2.28154
 Alpha virt. eigenvalues --    2.28353   2.29324   2.30301   2.30799   2.32176
 Alpha virt. eigenvalues --    2.32885   2.33147   2.33373   2.33830   2.34101
 Alpha virt. eigenvalues --    2.34446   2.35001   2.36437   2.37445   2.38167
 Alpha virt. eigenvalues --    2.40947   2.44383   2.46426   2.48588   2.51453
 Alpha virt. eigenvalues --    2.51815   2.53103   2.53640   2.54360   2.55607
 Alpha virt. eigenvalues --    2.56462   2.57277   2.58499   2.59216   2.60608
 Alpha virt. eigenvalues --    2.63714   2.64313   2.65131   2.66015   2.66419
 Alpha virt. eigenvalues --    2.67667   2.67869   2.71347   2.74703   2.75899
 Alpha virt. eigenvalues --    2.76064   2.77386   2.78571   2.81898   2.85192
 Alpha virt. eigenvalues --    2.88028   2.90821   2.91301   2.93461   2.96522
 Alpha virt. eigenvalues --    3.02829   3.04690   3.06571   3.08708   3.10192
 Alpha virt. eigenvalues --    3.11148   3.21647   3.29773   3.32564   3.46427
 Alpha virt. eigenvalues --   21.67380
          Condensed to atoms (all electrons):
 Mulliken charges:
               1
     1  Co   0.327985
     2  N   -0.171896
     3  O   -0.571921
     4  C    0.327817
     5  C   -0.547368
     6  H    0.199694
     7  H    0.204870
     8  H    0.199061
     9  N   -0.088695
    10  O   -0.550369
    11  C    0.274924
    12  C   -0.549429
    13  H    0.189857
    14  H    0.187602
    15  H    0.186910
    16  N   -0.169046
    17  O   -0.572061
    18  C    0.323867
    19  C   -0.546594
    20  H    0.199331
    21  H    0.200312
    22  H    0.204832
    23  N   -0.063556
    24  O   -0.554968
    25  C    0.268413
    26  C   -0.546842
    27  H    0.189308
    28  H    0.186717
    29  H    0.190334
    30  H    0.469848
    31  H    0.473239
    32  C   -0.398689
    33  H    0.184802
    34  H    0.190131
    35  C    0.239283
    36  C   -0.267436
    37  H    0.153242
    38  C   -0.553259
    39  H    0.165509
    40  H    0.164209
    41  H    0.189995
    42  C    0.152556
    43  C   -0.202538
    44  C   -0.205386
    45  C   -0.158071
    46  H    0.163776
    47  C   -0.153916
    48  H    0.153448
    49  C   -0.151357
    50  H    0.153932
    51  H    0.154017
    52  H    0.153575
 Sum of Mulliken charges =  -0.00000
 Mulliken charges with hydrogens summed into heavy atoms:
               1
     1  Co   0.327985
     2  N   -0.171896
     3  O   -0.102073
     4  C    0.327817
     5  C    0.056257
     9  N   -0.088695
    10  O   -0.550369
    11  C    0.274924
    12  C    0.014940
    16  N   -0.169046
    17  O   -0.098822
    18  C    0.323867
    19  C    0.057882
    23  N   -0.063556
    24  O   -0.554968
    25  C    0.268413
    26  C    0.019517
    32  C   -0.023756
    35  C    0.239283
    36  C   -0.114194
    38  C   -0.033546
    42  C    0.152556
    43  C   -0.038762
    44  C   -0.051938
    45  C   -0.004139
    47  C    0.000100
    49  C    0.002218
 Electronic spatial extent (au):  <R**2>=          10329.4798
 Charge=              0.0000 electrons
 Dipole moment (field-independent basis, Debye):
    X=             -0.1337    Y=              0.1233    Z=              0.8253  Tot=              0.8451
 Quadrupole moment (field-independent basis, Debye-Ang):
   XX=           -136.7211   YY=           -166.0637   ZZ=           -168.5922
   XY=             17.3050   XZ=              1.1277   YZ=             11.6956
 Traceless Quadrupole moment (field-independent basis, Debye-Ang):
   XX=             20.4046   YY=             -8.9380   ZZ=            -11.4665
   XY=             17.3050   XZ=              1.1277   YZ=             11.6956
 Octapole moment (field-independent basis, Debye-Ang**2):
  XXX=           -100.8485  YYY=             18.1598  ZZZ=             16.3767  XYY=             -3.2533
  XXY=            -45.7820  XXZ=              5.5157  XZZ=            -11.5203  YZZ=             24.7199
  YYZ=             23.8719  XYZ=            -30.3200
 Hexadecapole moment (field-independent basis, Debye-Ang**3):
 XXXX=          -8101.5198 YYYY=          -2678.1494 ZZZZ=          -1736.4560 XXXY=            189.1599
 XXXZ=            -29.1804 YYYX=             76.8371 YYYZ=             31.9989 ZZZX=             23.1110
 ZZZY=              0.4552 XXYY=          -1962.0345 XXZZ=          -1830.7765 YYZZ=           -715.8726
 XXYZ=            -37.7629 YYXZ=             46.8169 ZZXY=             57.8627
 N-N= 3.005965915763D+03 E-N=-9.203331012265D+03  KE= 1.300234135465D+03
 Unable to Open any file for archive entry.
 1\1\GINC-N204\SP\RB3LYP\GenECP\C18H25Co1N4O4\CJD\02-Mar-2023\0\\# B3LY
 P/genecp em=GD3BJ int=fine scrf=(smd,solvent=acetone)\\Template\\0,1\C
 o,0,-1.0308874195,-0.404158544,-0.8061670434\N,0,-1.4127404841,1.39454
 63945,-0.4094696032\O,0,-1.5835182976,2.4009211906,-1.3184254507\C,0,-
 1.514192461,1.6711351271,0.8506345276\C,0,-1.8260322878,3.0277519874,1
 .3831164043\H,0,-2.0898176587,3.6912558531,0.5635660284\H,0,-0.9539934
 519,3.4270638836,1.8987712606\H,0,-2.6464169461,2.9764111196,2.0952623
 249\N,0,-0.9286655875,-0.5416686183,1.0853340122\O,0,-0.6508415142,-1.
 6360570295,1.7259959416\C,0,-1.2609851384,0.5482509802,1.7184088519\C,
 0,-1.3438179574,0.6479725868,3.2079274113\H,0,-1.0482005937,-0.3074270
 023,3.6361815537\H,0,-2.3604471797,0.8785979925,3.5236240624\H,0,-0.68
 16963992,1.4284059232,3.5771831859\N,0,-0.8919633825,-2.241934485,-1.1
 504105528\O,0,-0.5298334492,-3.2060653639,-0.2569560659\C,0,-1.1944191
 179,-2.5941116569,-2.3593213368\C,0,-1.1800786443,-4.0037352864,-2.843
 4409164\H,0,-2.1154087082,-4.2425427187,-3.3440248005\H,0,-1.027948490
 3,-4.6765229769,-2.0034333931\H,0,-0.3691756284,-4.1388994449,-3.55742
 94378\N,0,-1.4525890448,-0.3243515735,-2.6353557987\O,0,-1.7282443154,
 0.7727690455,-3.262067107\C,0,-1.5346142277,-1.4877191783,-3.218906080
 2\C,0,-1.93048775,-1.6662869021,-4.6497208934\H,0,-2.8642460518,-2.221
 4607497,-4.7269331094\H,0,-1.1605408375,-2.2079343614,-5.1951473522\H,
 0,-2.0654125759,-0.6830703263,-5.0956711986\H,0,-1.6477086814,1.909600
 5364,-2.2236015984\H,0,-0.5155013023,-2.7112624489,0.6532876329\C,0,0.
 9025840151,-0.0152871496,-1.2621856823\H,0,1.1787575838,-0.7937414683,
 -1.972098023\H,0,0.8516100797,0.9608017486,-1.7432849836\C,0,1.7144815
 843,-0.0252562946,-0.0608463993\C,0,1.9561689144,1.1490176568,0.581748
 3319\H,0,1.5622559045,2.0448844224,0.1157186436\C,0,2.299557494,-1.339
 195251,0.3647381236\H,0,2.3715887596,-2.0117440493,-0.4858881306\H,0,3
 .2872817777,-1.2015354538,0.7968580542\H,0,1.6602433607,-1.8172211214,
 1.1054482307\C,0,2.7194298198,1.4012372375,1.78509532\C,0,2.862457203,
 0.4774129832,2.8261957392\C,0,3.3141140211,2.6616106944,1.9407008928\C
 ,0,3.5949379973,0.7936144572,3.9551668384\H,0,2.3595673114,-0.47278372
 94,2.7742424755\C,0,4.0568868169,2.9676560525,3.0625762047\H,0,3.19892
 17841,3.3959358723,1.1560863716\C,0,4.2068546842,2.0310671923,4.074944
 0549\H,0,3.6869352076,0.0681835952,4.7506353475\H,0,4.5176043494,3.940
 5859066,3.1546395755\H,0,4.7854345177,2.2694752784,4.9551166441\\Versi
 on=ES64L-G16RevC.01\State=1-A\HF=-1365.9337047\RMSD=6.547e-09\Dipole=-
 0.2567403,-0.1034814,0.1842032\Quadrupole=-3.2648949,0.4987072,2.76618
 77,4.4094126,0.6548326,19.6514025\PG=C01 [X(C18H25Co1N4O4)]\\@
 The archive entry for this job was punched.


 MICHAEL FARADAY, ASKED BY A POLITICIAN WHAT GOOD
 HIS ELECTRICAL DISCOVERIES WERE, REPLIED 
 "AT PRESENT I DO NOT KNOW, BUT ONE DAY YOU WILL BE
 ABLE TO TAX THEM."
 Job cpu time:       0 days  0 hours 21 minutes 17.2 seconds.
 Elapsed time:       0 days  0 hours  1 minutes 22.0 seconds.
 File lengths (MBytes):  RWF=    330 Int=      0 D2E=      0 Chk=     14 Scr=      1
 Normal termination of Gaussian 16 at Thu Mar  2 08:09:02 2023.
