 Entering Gaussian System, Link 0=g16
 Initial command:
 /opt/local/g16/l1.exe "/data/tmp/cjd/Gau-64457.inp" -scrdir="/data/tmp/cjd/"
 Entering Link 1 = /opt/local/g16/l1.exe PID=     64458.
  
 Copyright (c) 1988-2019, Gaussian, Inc.  All Rights Reserved.
  
 This is part of the Gaussian(R) 16 program.  It is based on
 the Gaussian(R) 09 system (copyright 2009, Gaussian, Inc.),
 the Gaussian(R) 03 system (copyright 2003, Gaussian, Inc.),
 the Gaussian(R) 98 system (copyright 1998, Gaussian, Inc.),
 the Gaussian(R) 94 system (copyright 1995, Gaussian, Inc.),
 the Gaussian 92(TM) system (copyright 1992, Gaussian, Inc.),
 the Gaussian 90(TM) system (copyright 1990, Gaussian, Inc.),
 the Gaussian 88(TM) system (copyright 1988, Gaussian, Inc.),
 the Gaussian 86(TM) system (copyright 1986, Carnegie Mellon
 University), and the Gaussian 82(TM) system (copyright 1983,
 Carnegie Mellon University). Gaussian is a federally registered
 trademark of Gaussian, Inc.
  
 This software contains proprietary and confidential information,
 including trade secrets, belonging to Gaussian, Inc.
  
 This software is provided under written license and may be
 used, copied, transmitted, or stored only in accord with that
 written license.
  
 The following legend is applicable only to US Government
 contracts under FAR:
  
                    RESTRICTED RIGHTS LEGEND
  
 Use, reproduction and disclosure by the US Government is
 subject to restrictions as set forth in subparagraphs (a)
 and (c) of the Commercial Computer Software - Restricted
 Rights clause in FAR 52.227-19.
  
 Gaussian, Inc.
 340 Quinnipiac St., Bldg. 40, Wallingford CT 06492
  
  
 ---------------------------------------------------------------
 Warning -- This program may not be used in any manner that
 competes with the business of Gaussian, Inc. or will provide
 assistance to any competitor of Gaussian, Inc.  The licensee
 of this program is prohibited from giving any competitor of
 Gaussian, Inc. access to this program.  By using this program,
 the user acknowledges that Gaussian, Inc. is engaged in the
 business of creating and licensing software in the field of
 computational chemistry and represents and warrants to the
 licensee that it is not a competitor of Gaussian, Inc. and that
 it will not use this program in any manner prohibited above.
 ---------------------------------------------------------------
  

 Cite this work as:
 Gaussian 16, Revision C.01,
 M. J. Frisch, G. W. Trucks, H. B. Schlegel, G. E. Scuseria, 
 M. A. Robb, J. R. Cheeseman, G. Scalmani, V. Barone, 
 G. A. Petersson, H. Nakatsuji, X. Li, M. Caricato, A. V. Marenich, 
 J. Bloino, B. G. Janesko, R. Gomperts, B. Mennucci, H. P. Hratchian, 
 J. V. Ortiz, A. F. Izmaylov, J. L. Sonnenberg, D. Williams-Young, 
 F. Ding, F. Lipparini, F. Egidi, J. Goings, B. Peng, A. Petrone, 
 T. Henderson, D. Ranasinghe, V. G. Zakrzewski, J. Gao, N. Rega, 
 G. Zheng, W. Liang, M. Hada, M. Ehara, K. Toyota, R. Fukuda, 
 J. Hasegawa, M. Ishida, T. Nakajima, Y. Honda, O. Kitao, H. Nakai, 
 T. Vreven, K. Throssell, J. A. Montgomery, Jr., J. E. Peralta, 
 F. Ogliaro, M. J. Bearpark, J. J. Heyd, E. N. Brothers, K. N. Kudin, 
 V. N. Staroverov, T. A. Keith, R. Kobayashi, J. Normand, 
 K. Raghavachari, A. P. Rendell, J. C. Burant, S. S. Iyengar, 
 J. Tomasi, M. Cossi, J. M. Millam, M. Klene, C. Adamo, R. Cammi, 
 J. W. Ochterski, R. L. Martin, K. Morokuma, O. Farkas, 
 J. B. Foresman, and D. J. Fox, Gaussian, Inc., Wallingford CT, 2019.
 
 ******************************************
 Gaussian 16:  ES64L-G16RevC.01  3-Jul-2019
                 2-Mar-2023 
 ******************************************
 %nproc=16
 Will use up to   16 processors via shared memory.
 %mem=60GB
 -----------------------------------------------------------
 # B3LYP/genecp em=GD3BJ int=fine scrf=(smd,solvent=acetone)
 -----------------------------------------------------------
 1/38=1,172=1/1;
 2/12=2,17=6,18=5,40=1/2;
 3/5=7,11=2,16=1,17=8,25=1,30=1,70=32201,72=19,74=-5,75=-4,124=41/1,2,3;
 4//1;
 5/5=2,38=5,53=19/2;
 6/7=2,8=2,9=2,10=2,28=1/1;
 99/5=1,9=1/99;
 --------
 Template
 --------
 Symbolic Z-matrix:
 Charge =  0 Multiplicity = 1
 Co                   -1.31184  -0.03823  -0.38464 
 N                    -2.80076   1.0986   -0.50775 
 O                    -2.95679   2.12573  -1.39237 
 C                    -3.75294   0.84941   0.33258 
 C                    -5.03658   1.60505   0.38152 
 H                    -5.06206   2.22579   1.27584 
 H                    -5.88019   0.92017   0.41881 
 H                    -5.11655   2.24532  -0.49324 
 N                    -2.26502  -0.7315    1.09775 
 O                    -1.83284  -1.68738   1.86075 
 C                    -3.45298  -0.2179    1.25583 
 C                    -4.41343  -0.66593   2.31082 
 H                    -3.92961  -1.42978   2.91626 
 H                    -5.31254  -1.08609   1.86224 
 H                    -4.7019    0.16903   2.946 
 N                     0.01473  -1.37187  -0.41049 
 O                     0.26675  -2.28099   0.57418 
 C                     0.70247  -1.42877  -1.50461 
 C                     1.76318  -2.44045  -1.7729 
 H                     1.6181   -2.8928   -2.75112 
 H                     1.7393   -3.2074   -1.00324 
 H                     2.74008  -1.95977  -1.76091 
 N                    -0.54018   0.43798  -2.02669 
 O                    -0.93087   1.44231  -2.74853 
 C                     0.37434  -0.38978  -2.44943 
 C                     1.0506   -0.26205  -3.77677 
 H                     0.69163   0.64285  -4.2628 
 H                     0.82298  -1.11804  -4.41061 
 H                     2.12958  -0.20249  -3.65207 
 H                    -2.15887   2.01893  -2.04504 
 H                    -0.51944  -2.15529   1.23743 
 C                    -0.29042   1.34346   0.70422 
 H                    -0.67141   2.29082   0.32464 
 H                    -0.6376    1.13882   1.71685 
 C                     1.15195   1.24402   0.57802 
 C                     1.83859   0.41746   1.40866 
 H                     1.25091  -0.19359   2.08226 
 C                     1.80406   2.09412  -0.47432 
 H                     2.71209   1.63234  -0.85182 
 H                     1.11917   2.26268  -1.30007 
 H                     2.0569    3.06845  -0.05724 
 C                     3.26321   0.15813   1.4714 
 C                     3.67796  -1.13306   1.82374 
 C                     4.2458    1.12197   1.22781 
 C                     5.0178   -1.45997   1.87548 
 H                     2.92856  -1.884     2.0278 
 C                     5.58755   0.79463   1.29991 
 H                     3.96054   2.14078   1.02503 
 C                     5.9807   -0.49734   1.60944 
 H                     5.3166   -2.46628   2.13129 
 H                     6.33314   1.55467   1.11558 
 H                     7.02967  -0.75033   1.65601 
 
 Stoichiometry    C18H25CoN4O4
 Framework group  C1[X(C18H25CoN4O4)]
 Deg. of freedom   150
 Full point group                 C1      NOp   1
 Largest Abelian subgroup         C1      NOp   1
 Largest concise Abelian subgroup C1      NOp   1
                         Standard orientation:                         
 ---------------------------------------------------------------------
 Center     Atomic      Atomic             Coordinates (Angstroms)
 Number     Number       Type             X           Y           Z
 ---------------------------------------------------------------------
      1         27           0        1.364305    0.197543    0.250479
      2          7           0        2.971123    0.419502   -0.694655
      3          8           0        3.322155    1.508108   -1.438706
      4          6           0        3.804114   -0.566517   -0.600869
      5          6           0        5.150177   -0.580515   -1.240437
      6          1           0        5.154027   -1.286061   -2.069861
      7          1           0        5.907951   -0.891884   -0.525617
      8          1           0        5.383612    0.410613   -1.620874
      9          7           0        2.087785   -1.516737    0.603278
     10          8           0        1.483088   -2.436845    1.289113
     11          6           0        3.302587   -1.684700    0.160478
     12          6           0        4.101438   -2.927837    0.389931
     13          1           0        3.481638   -3.642053    0.928304
     14          1           0        4.990105   -2.712940    0.981743
     15          1           0        4.413832   -3.362896   -0.557157
     16          7           0       -0.088318    0.049219    1.436625
     17          8           0       -0.531522   -1.094003    2.033461
     18          6           0       -0.667504    1.169502    1.724395
     19          6           0       -1.798862    1.302387    2.685102
     20          1           0       -1.607719    2.109976    3.387842
     21          1           0       -1.932786    0.367587    3.223029
     22          1           0       -2.715190    1.531392    2.143400
     23          7           0        0.812868    1.988284    0.162478
     24          8           0        1.377665    2.886147   -0.583993
     25          6           0       -0.139020    2.297822    0.998137
     26          6           0       -0.664219    3.687068    1.170311
     27          1           0       -0.164580    4.337412    0.455235
     28          1           0       -0.468367    4.052377    2.177522
     29          1           0       -1.737645    3.714405    0.996186
     30          1           0        2.585304    2.205513   -1.227196
     31          1           0        0.194705   -1.795372    1.800084
     32          6           0        0.394640   -0.375177   -1.443536
     33          1           0        0.910165    0.180954   -2.225636
     34          1           0        0.616892   -1.441354   -1.484943
     35          6           0       -1.030717   -0.102479   -1.427317
     36          6           0       -1.879987   -1.023848   -0.903444
     37          1           0       -1.429974   -1.896218   -0.446328
     38          6           0       -1.481735    1.201532   -2.020168
     39          1           0       -2.392504    1.558919   -1.547889
     40          1           0       -0.705048    1.952875   -1.912527
     41          1           0       -1.668623    1.077184   -3.086388
     42          6           0       -3.323409   -0.974950   -0.781549
     43          6           0       -3.906442   -1.587300    0.335784
     44          6           0       -4.168609   -0.378324   -1.721486
     45          6           0       -5.272137   -1.555220    0.532184
     46          1           0       -3.265310   -2.063875    1.063102
     47          6           0       -5.538237   -0.365656   -1.530157
     48          1           0       -3.757514    0.037767   -2.626103
     49          6           0       -6.095775   -0.939752   -0.399167
     50          1           0       -5.700498   -2.017409    1.409830
     51          1           0       -6.176554    0.093793   -2.271100
     52          1           0       -7.165265   -0.919709   -0.249833
 ---------------------------------------------------------------------
 Rotational constants (GHZ):           0.3073770           0.1222199           0.1114612
 General basis read from cards:  (5D, 7F)
 ======================================================================================================
                                       Pseudopotential Parameters
 ======================================================================================================
  Center     Atomic      Valence      Angular      Power
  Number     Number     Electrons     Momentum     of R      Exponent        Coefficient   SO-Coeffient
 ======================================================================================================
    1         27           17
                                      D and up 
                                                     1      434.1076104      -10.00000000    0.00000000
                                                     2       78.8402758      -66.72402760    0.00000000
                                                     2       19.6037749      -11.71922430    0.00000000
                                      S - D
                                                     0      151.2307582        3.00000000    0.00000000
                                                     1      169.6790026       20.15531100    0.00000000
                                                     2       64.9909423      413.37622440    0.00000000
                                                     2       12.5076287      133.87277050    0.00000000
                                      P - D
                                                     0       92.7319924        5.00000000    0.00000000
                                                     1      121.1910183        6.18923530    0.00000000
                                                     2       48.6265909      326.32159190    0.00000000
                                                     2       11.9966971       73.87889700    0.00000000
    2          7
                                   No pseudopotential on this center.
    3          8
                                   No pseudopotential on this center.
    4          6
                                   No pseudopotential on this center.
    5          6
                                   No pseudopotential on this center.
    6          1
                                   No pseudopotential on this center.
    7          1
                                   No pseudopotential on this center.
    8          1
                                   No pseudopotential on this center.
    9          7
                                   No pseudopotential on this center.
   10          8
                                   No pseudopotential on this center.
   11          6
                                   No pseudopotential on this center.
   12          6
                                   No pseudopotential on this center.
   13          1
                                   No pseudopotential on this center.
   14          1
                                   No pseudopotential on this center.
   15          1
                                   No pseudopotential on this center.
   16          7
                                   No pseudopotential on this center.
   17          8
                                   No pseudopotential on this center.
   18          6
                                   No pseudopotential on this center.
   19          6
                                   No pseudopotential on this center.
   20          1
                                   No pseudopotential on this center.
   21          1
                                   No pseudopotential on this center.
   22          1
                                   No pseudopotential on this center.
   23          7
                                   No pseudopotential on this center.
   24          8
                                   No pseudopotential on this center.
   25          6
                                   No pseudopotential on this center.
   26          6
                                   No pseudopotential on this center.
   27          1
                                   No pseudopotential on this center.
   28          1
                                   No pseudopotential on this center.
   29          1
                                   No pseudopotential on this center.
   30          1
                                   No pseudopotential on this center.
   31          1
                                   No pseudopotential on this center.
   32          6
                                   No pseudopotential on this center.
   33          1
                                   No pseudopotential on this center.
   34          1
                                   No pseudopotential on this center.
   35          6
                                   No pseudopotential on this center.
   36          6
                                   No pseudopotential on this center.
   37          1
                                   No pseudopotential on this center.
   38          6
                                   No pseudopotential on this center.
   39          1
                                   No pseudopotential on this center.
   40          1
                                   No pseudopotential on this center.
   41          1
                                   No pseudopotential on this center.
   42          6
                                   No pseudopotential on this center.
   43          6
                                   No pseudopotential on this center.
   44          6
                                   No pseudopotential on this center.
   45          6
                                   No pseudopotential on this center.
   46          1
                                   No pseudopotential on this center.
   47          6
                                   No pseudopotential on this center.
   48          1
                                   No pseudopotential on this center.
   49          6
                                   No pseudopotential on this center.
   50          1
                                   No pseudopotential on this center.
   51          1
                                   No pseudopotential on this center.
   52          1
                                   No pseudopotential on this center.
 ======================================================================================================
 There are   464 symmetry adapted cartesian basis functions of A   symmetry.
 There are   436 symmetry adapted basis functions of A   symmetry.
   436 basis functions,   880 primitive gaussians,   464 cartesian basis functions
   105 alpha electrons      105 beta electrons
       nuclear repulsion energy      2997.5611259638 Hartrees.
 NAtoms=   52 NActive=   52 NUniq=   52 SFac= 1.00D+00 NAtFMM=   60 NAOKFM=F Big=F
 Integral buffers will be    131072 words long.
 Raffenetti 2 integral format.
 Two-electron integral symmetry is turned on.
 Nuclear repulsion after empirical dispersion term =     2997.4368431149 Hartrees.
 ------------------------------------------------------------------------------
 Polarizable Continuum Model (PCM)
 =================================
 Model                : PCM.
 Atomic radii         : SMD-Coulomb.
 Polarization charges : Total charges.
 Charge compensation  : None.
 Solution method      : On-the-fly selection.
 Cavity type          : VdW (van der Waals Surface) (Alpha=1.000).
 Cavity algorithm     : GePol (No added spheres)
                        Default sphere list used, NSphG=   52.
                        Lebedev-Laikov grids with approx.  5.0 points / Ang**2.
                        Smoothing algorithm: York/Karplus (Gamma=1.0000).
                        Polarization charges: spherical gaussians, with
                                              point-specific exponents (IZeta= 3).
                        Self-potential: point-specific (ISelfS= 7).
                        Self-field    : sphere-specific E.n sum rule (ISelfD= 2).
 Solvent              : Acetone, Eps=  20.493000 Eps(inf)=   1.846337
 ------------------------------------------------------------------------------
 ------------------------------------------------------------------------------
 Atomic radii for non-electrostatic terms: SMD-CDS.
 ------------------------------------------------------------------------------
 Nuclear repulsion after PCM non-electrostatic terms =     2997.4301550857 Hartrees.
 One-electron integrals computed using PRISM.
   1 Symmetry operations used in ECPInt.
 ECPInt:  NShTT=   13203 NPrTT=   81964 LenC2=   11318 LenP2D=   39246.
 LDataN:  DoStor=T MaxTD1= 4 Len=   56
 NBasis=   436 RedAO= T EigKep=  4.38D-04  NBF=   436
 NBsUse=   436 1.00D-06 EigRej= -1.00D+00 NBFU=   436
 ExpMin= 2.30D-02 ExpMax= 5.48D+03 ExpMxC= 8.25D+02 IAcc=3 IRadAn=         5 AccDes= 0.00D+00
 Harris functional with IExCor=  402 and IRadAn=       5 diagonalized for initial guess.
 HarFok:  IExCor=  402 AccDes= 0.00D+00 IRadAn=         5 IDoV= 1 UseB2=F ITyADJ=14
 ICtDFT=  3500011 ScaDFX=  1.000000  1.000000  1.000000  1.000000
 FoFCou: FMM=F IPFlag=           0 FMFlag=      100000 FMFlg1=           0
         NFxFlg=           0 DoJE=T BraDBF=F KetDBF=T FulRan=T
         wScrn=  0.000000 ICntrl=       500 IOpCl=  0 I1Cent=   200000004 NGrid=           0
         NMat0=    1 NMatS0=      1 NMatT0=    0 NMatD0=    1 NMtDS0=    0 NMtDT0=    0
 Petite list used in FoFCou.
 Requested convergence on RMS density matrix=1.00D-08 within 128 cycles.
 Requested convergence on MAX density matrix=1.00D-06.
 Requested convergence on             energy=1.00D-06.
 No special actions if energy rises.
 Inv3:  Mode=1 IEnd=    40252707.
 Iteration    1 A*A^-1 deviation from unit magnitude is 4.00D-15 for   2402.
 Iteration    1 A*A^-1 deviation from orthogonality  is 3.19D-15 for   1514   1183.
 Iteration    1 A^-1*A deviation from unit magnitude is 3.33D-15 for   2402.
 Iteration    1 A^-1*A deviation from orthogonality  is 5.23D-15 for   1642   1605.
 EnCoef did     5 forward-backward iterations
 Error on total polarization charges =  0.04502
 SCF Done:  E(RB3LYP) =  -1365.93052409     A.U. after   20 cycles
            NFock= 20  Conv=0.87D-08     -V/T= 2.0505
 SMD-CDS (non-electrostatic) energy       (kcal/mol) =      -4.20
 (included in total energy above)

 **********************************************************************

            Population analysis using the SCF Density.

 **********************************************************************

 Orbital symmetries:
       Occupied  (A) (A) (A) (A) (A) (A) (A) (A) (A) (A) (A) (A)
                 (A) (A) (A) (A) (A) (A) (A) (A) (A) (A) (A) (A)
                 (A) (A) (A) (A) (A) (A) (A) (A) (A) (A) (A) (A)
                 (A) (A) (A) (A) (A) (A) (A) (A) (A) (A) (A) (A)
                 (A) (A) (A) (A) (A) (A) (A) (A) (A) (A) (A) (A)
                 (A) (A) (A) (A) (A) (A) (A) (A) (A) (A) (A) (A)
                 (A) (A) (A) (A) (A) (A) (A) (A) (A) (A) (A) (A)
                 (A) (A) (A) (A) (A) (A) (A) (A) (A) (A) (A) (A)
                 (A) (A) (A) (A) (A) (A) (A) (A) (A)
       Virtual   (A) (A) (A) (A) (A) (A) (A) (A) (A) (A) (A) (A)
                 (A) (A) (A) (A) (A) (A) (A) (A) (A) (A) (A) (A)
                 (A) (A) (A) (A) (A) (A) (A) (A) (A) (A) (A) (A)
                 (A) (A) (A) (A) (A) (A) (A) (A) (A) (A) (A) (A)
                 (A) (A) (A) (A) (A) (A) (A) (A) (A) (A) (A) (A)
                 (A) (A) (A) (A) (A) (A) (A) (A) (A) (A) (A) (A)
                 (A) (A) (A) (A) (A) (A) (A) (A) (A) (A) (A) (A)
                 (A) (A) (A) (A) (A) (A) (A) (A) (A) (A) (A) (A)
                 (A) (A) (A) (A) (A) (A) (A) (A) (A) (A) (A) (A)
                 (A) (A) (A) (A) (A) (A) (A) (A) (A) (A) (A) (A)
                 (A) (A) (A) (A) (A) (A) (A) (A) (A) (A) (A) (A)
                 (A) (A) (A) (A) (A) (A) (A) (A) (A) (A) (A) (A)
                 (A) (A) (A) (A) (A) (A) (A) (A) (A) (A) (A) (A)
                 (A) (A) (A) (A) (A) (A) (A) (A) (A) (A) (A) (A)
                 (A) (A) (A) (A) (A) (A) (A) (A) (A) (A) (A) (A)
                 (A) (A) (A) (A) (A) (A) (A) (A) (A) (A) (A) (A)
                 (A) (A) (A) (A) (A) (A) (A) (A) (A) (A) (A) (A)
                 (A) (A) (A) (A) (A) (A) (A) (A) (A) (A) (A) (A)
                 (A) (A) (A) (A) (A) (A) (A) (A) (A) (A) (A) (A)
                 (A) (A) (A) (A) (A) (A) (A) (A) (A) (A) (A) (A)
                 (A) (A) (A) (A) (A) (A) (A) (A) (A) (A) (A) (A)
                 (A) (A) (A) (A) (A) (A) (A) (A) (A) (A) (A) (A)
                 (A) (A) (A) (A) (A) (A) (A) (A) (A) (A) (A) (A)
                 (A) (A) (A) (A) (A) (A) (A) (A) (A) (A) (A) (A)
                 (A) (A) (A) (A) (A) (A) (A) (A) (A) (A) (A) (A)
                 (A) (A) (A) (A) (A) (A) (A) (A) (A) (A) (A) (A)
                 (A) (A) (A) (A) (A) (A) (A) (A) (A) (A) (A) (A)
                 (A) (A) (A) (A) (A) (A) (A)
 The electronic state is 1-A.
 Alpha  occ. eigenvalues --  -19.16666 -19.16657 -19.12772 -19.12716 -14.40994
 Alpha  occ. eigenvalues --  -14.40946 -14.40558 -14.40398 -10.23685 -10.23471
 Alpha  occ. eigenvalues --  -10.21390 -10.21359 -10.18581 -10.18441 -10.17567
 Alpha  occ. eigenvalues --  -10.17541 -10.17495 -10.17472 -10.17471 -10.17454
 Alpha  occ. eigenvalues --  -10.17406 -10.17375 -10.16982 -10.16818 -10.16814
 Alpha  occ. eigenvalues --  -10.15699  -3.74535  -2.44568  -2.43727  -2.42725
 Alpha  occ. eigenvalues --   -1.09078  -1.08541  -1.06898  -1.06355  -0.90627
 Alpha  occ. eigenvalues --   -0.89432  -0.85798  -0.81930  -0.80949  -0.80611
 Alpha  occ. eigenvalues --   -0.75331  -0.74650  -0.74219  -0.74195  -0.70656
 Alpha  occ. eigenvalues --   -0.70535  -0.68404  -0.66417  -0.62336  -0.60331
 Alpha  occ. eigenvalues --   -0.60086  -0.58798  -0.54904  -0.53557  -0.52979
 Alpha  occ. eigenvalues --   -0.52125  -0.51328  -0.50881  -0.49424  -0.49010
 Alpha  occ. eigenvalues --   -0.47664  -0.46998  -0.46642  -0.46174  -0.45344
 Alpha  occ. eigenvalues --   -0.44516  -0.43388  -0.42767  -0.42342  -0.42292
 Alpha  occ. eigenvalues --   -0.42058  -0.41941  -0.41526  -0.40915  -0.40611
 Alpha  occ. eigenvalues --   -0.40002  -0.39593  -0.39124  -0.38838  -0.38446
 Alpha  occ. eigenvalues --   -0.38084  -0.38021  -0.37601  -0.37302  -0.36808
 Alpha  occ. eigenvalues --   -0.36266  -0.34916  -0.34340  -0.34287  -0.33283
 Alpha  occ. eigenvalues --   -0.32904  -0.31032  -0.30517  -0.28399  -0.28000
 Alpha  occ. eigenvalues --   -0.27758  -0.26604  -0.26284  -0.25208  -0.25058
 Alpha  occ. eigenvalues --   -0.24978  -0.22365  -0.20158  -0.19810  -0.19609
 Alpha virt. eigenvalues --   -0.09239  -0.03877  -0.03449  -0.00444   0.00135
 Alpha virt. eigenvalues --    0.00441   0.02606   0.02896   0.03278   0.06018
 Alpha virt. eigenvalues --    0.06717   0.06794   0.07825   0.11038   0.12261
 Alpha virt. eigenvalues --    0.12480   0.13623   0.14516   0.14622   0.14991
 Alpha virt. eigenvalues --    0.15448   0.16290   0.16595   0.16801   0.17380
 Alpha virt. eigenvalues --    0.17673   0.18102   0.18125   0.18426   0.18931
 Alpha virt. eigenvalues --    0.19112   0.19384   0.19591   0.20254   0.21472
 Alpha virt. eigenvalues --    0.22073   0.22879   0.23248   0.23584   0.24765
 Alpha virt. eigenvalues --    0.24811   0.24918   0.25703   0.26131   0.26722
 Alpha virt. eigenvalues --    0.27016   0.28005   0.28772   0.29429   0.29873
 Alpha virt. eigenvalues --    0.30480   0.31863   0.32100   0.33233   0.34328
 Alpha virt. eigenvalues --    0.34917   0.36190   0.36992   0.40184   0.41251
 Alpha virt. eigenvalues --    0.42311   0.42589   0.42709   0.44800   0.47185
 Alpha virt. eigenvalues --    0.47938   0.49755   0.51217   0.51902   0.52980
 Alpha virt. eigenvalues --    0.53761   0.53982   0.54489   0.55803   0.56014
 Alpha virt. eigenvalues --    0.56425   0.57205   0.57544   0.57892   0.58223
 Alpha virt. eigenvalues --    0.59724   0.59964   0.60139   0.60546   0.60841
 Alpha virt. eigenvalues --    0.61440   0.62206   0.62733   0.63028   0.63510
 Alpha virt. eigenvalues --    0.64432   0.65086   0.66089   0.67308   0.67997
 Alpha virt. eigenvalues --    0.68425   0.68837   0.69631   0.69926   0.70442
 Alpha virt. eigenvalues --    0.70869   0.71240   0.72095   0.72831   0.74865
 Alpha virt. eigenvalues --    0.75299   0.75690   0.76669   0.77280   0.78074
 Alpha virt. eigenvalues --    0.78752   0.79994   0.81475   0.82012   0.82812
 Alpha virt. eigenvalues --    0.83394   0.84144   0.84397   0.85196   0.85407
 Alpha virt. eigenvalues --    0.85556   0.85763   0.86456   0.86942   0.87477
 Alpha virt. eigenvalues --    0.88084   0.89343   0.89942   0.90112   0.90641
 Alpha virt. eigenvalues --    0.90870   0.90994   0.91666   0.92142   0.92685
 Alpha virt. eigenvalues --    0.92761   0.93684   0.94172   0.95149   0.95523
 Alpha virt. eigenvalues --    0.96121   0.96614   0.97230   0.98283   0.98766
 Alpha virt. eigenvalues --    0.99634   1.00435   1.00904   1.02504   1.03099
 Alpha virt. eigenvalues --    1.03438   1.03862   1.04384   1.05676   1.06684
 Alpha virt. eigenvalues --    1.07005   1.08152   1.08607   1.09627   1.11095
 Alpha virt. eigenvalues --    1.12188   1.12872   1.13386   1.15012   1.16130
 Alpha virt. eigenvalues --    1.16703   1.17916   1.20267   1.20553   1.21397
 Alpha virt. eigenvalues --    1.22466   1.23821   1.24625   1.25255   1.25746
 Alpha virt. eigenvalues --    1.27194   1.28623   1.29186   1.30010   1.30229
 Alpha virt. eigenvalues --    1.34122   1.34390   1.35228   1.35588   1.36657
 Alpha virt. eigenvalues --    1.36931   1.37403   1.37766   1.38786   1.39049
 Alpha virt. eigenvalues --    1.39739   1.40965   1.41859   1.43425   1.43757
 Alpha virt. eigenvalues --    1.44612   1.46230   1.46843   1.49665   1.49859
 Alpha virt. eigenvalues --    1.49948   1.50569   1.51282   1.52463   1.53037
 Alpha virt. eigenvalues --    1.54818   1.58842   1.60527   1.62184   1.62427
 Alpha virt. eigenvalues --    1.63526   1.69304   1.71615   1.74230   1.74464
 Alpha virt. eigenvalues --    1.75293   1.75875   1.76891   1.77494   1.78429
 Alpha virt. eigenvalues --    1.79420   1.79892   1.80243   1.81013   1.81989
 Alpha virt. eigenvalues --    1.82231   1.82501   1.83281   1.84211   1.85383
 Alpha virt. eigenvalues --    1.87440   1.87968   1.89934   1.90097   1.91284
 Alpha virt. eigenvalues --    1.91429   1.92676   1.93894   1.93956   1.94885
 Alpha virt. eigenvalues --    1.95434   1.96672   1.97588   1.98652   1.99420
 Alpha virt. eigenvalues --    2.00027   2.00768   2.01639   2.02617   2.05135
 Alpha virt. eigenvalues --    2.06586   2.09350   2.10139   2.11596   2.12777
 Alpha virt. eigenvalues --    2.12896   2.13549   2.14678   2.15210   2.15910
 Alpha virt. eigenvalues --    2.16153   2.16926   2.19430   2.19896   2.20603
 Alpha virt. eigenvalues --    2.21421   2.23745   2.24078   2.26466   2.28044
 Alpha virt. eigenvalues --    2.28422   2.29123   2.29306   2.30735   2.31932
 Alpha virt. eigenvalues --    2.32884   2.32984   2.33099   2.34053   2.34250
 Alpha virt. eigenvalues --    2.34624   2.36011   2.36438   2.37439   2.39067
 Alpha virt. eigenvalues --    2.40099   2.43941   2.45173   2.46447   2.51321
 Alpha virt. eigenvalues --    2.51619   2.52837   2.52941   2.54195   2.55721
 Alpha virt. eigenvalues --    2.56456   2.56897   2.59018   2.59715   2.60673
 Alpha virt. eigenvalues --    2.64059   2.64374   2.64872   2.65831   2.66221
 Alpha virt. eigenvalues --    2.67634   2.68300   2.70540   2.74476   2.75895
 Alpha virt. eigenvalues --    2.76640   2.77086   2.78121   2.82109   2.85551
 Alpha virt. eigenvalues --    2.87009   2.90861   2.91212   2.93404   2.96082
 Alpha virt. eigenvalues --    3.02717   3.04571   3.05752   3.08331   3.10083
 Alpha virt. eigenvalues --    3.10914   3.20872   3.29390   3.32341   3.46463
 Alpha virt. eigenvalues --   21.72707
          Condensed to atoms (all electrons):
 Mulliken charges:
               1
     1  Co   0.334519
     2  N   -0.165413
     3  O   -0.573009
     4  C    0.327005
     5  C   -0.545714
     6  H    0.205609
     7  H    0.199022
     8  H    0.200219
     9  N   -0.079949
    10  O   -0.557496
    11  C    0.268859
    12  C   -0.548270
    13  H    0.190386
    14  H    0.189454
    15  H    0.186995
    16  N   -0.168726
    17  O   -0.568315
    18  C    0.323085
    19  C   -0.546915
    20  H    0.197183
    21  H    0.198917
    22  H    0.204990
    23  N   -0.084216
    24  O   -0.557079
    25  C    0.277301
    26  C   -0.549390
    27  H    0.190390
    28  H    0.189357
    29  H    0.187476
    30  H    0.471221
    31  H    0.471157
    32  C   -0.405839
    33  H    0.191263
    34  H    0.198717
    35  C    0.232225
    36  C   -0.250918
    37  H    0.150259
    38  C   -0.559824
    39  H    0.168033
    40  H    0.181955
    41  H    0.178755
    42  C    0.140866
    43  C   -0.202764
    44  C   -0.200890
    45  C   -0.155161
    46  H    0.155426
    47  C   -0.158379
    48  H    0.159950
    49  C   -0.151716
    50  H    0.153421
    51  H    0.153264
    52  H    0.152703
 Sum of Mulliken charges =  -0.00000
 Mulliken charges with hydrogens summed into heavy atoms:
               1
     1  Co   0.334519
     2  N   -0.165413
     3  O   -0.101788
     4  C    0.327005
     5  C    0.059135
     9  N   -0.079949
    10  O   -0.557496
    11  C    0.268859
    12  C    0.018564
    16  N   -0.168726
    17  O   -0.097158
    18  C    0.323085
    19  C    0.054176
    23  N   -0.084216
    24  O   -0.557079
    25  C    0.277301
    26  C    0.017833
    32  C   -0.015859
    35  C    0.232225
    36  C   -0.100659
    38  C   -0.031081
    42  C    0.140866
    43  C   -0.047339
    44  C   -0.040940
    45  C   -0.001739
    47  C   -0.005114
    49  C    0.000987
 Electronic spatial extent (au):  <R**2>=          10419.5113
 Charge=             -0.0000 electrons
 Dipole moment (field-independent basis, Debye):
    X=              0.2316    Y=              0.5430    Z=              0.8177  Tot=              1.0086
 Quadrupole moment (field-independent basis, Debye-Ang):
   XX=           -137.3814   YY=           -172.9351   ZZ=           -160.7739
   XY=            -17.3034   XZ=             -3.1361   YZ=             11.3518
 Traceless Quadrupole moment (field-independent basis, Debye-Ang):
   XX=             19.6487   YY=            -15.9050   ZZ=             -3.7438
   XY=            -17.3034   XZ=             -3.1361   YZ=             11.3518
 Octapole moment (field-independent basis, Debye-Ang**2):
  XXX=            110.6859  YYY=             14.8514  ZZZ=             15.9970  XYY=             13.4178
  XXY=            -44.4847  XXZ=              3.3966  XZZ=              4.8736  YZZ=             24.1054
  YYZ=             23.8009  XYZ=             27.4941
 Hexadecapole moment (field-independent basis, Debye-Ang**3):
 XXXX=          -8056.3762 YYYY=          -2868.9050 ZZZZ=          -1754.7243 XXXY=           -225.3984
 XXXZ=            -47.4376 YYYX=            -83.8256 YYYZ=             45.7701 ZZZX=            -18.4067
 ZZZY=              6.0350 XXYY=          -2016.9759 XXZZ=          -1772.9360 YYZZ=           -749.7190
 XXYZ=            -36.2922 YYXZ=            -71.9708 ZZXY=            -35.3011
 N-N= 2.997430155086D+03 E-N=-9.186347687029D+03  KE= 1.300225640417D+03
 Unable to Open any file for archive entry.
 1\1\GINC-N204\SP\RB3LYP\GenECP\C18H25Co1N4O4\CJD\02-Mar-2023\0\\# B3LY
 P/genecp em=GD3BJ int=fine scrf=(smd,solvent=acetone)\\Template\\0,1\C
 o,0,-1.3118425769,-0.0382271302,-0.3846354101\N,0,-2.8007589597,1.0986
 006847,-0.5077500484\O,0,-2.9567886961,2.1257344291,-1.3923680036\C,0,
 -3.7529394496,0.8494068094,0.3325833461\C,0,-5.0365781583,1.6050549761
 ,0.3815238699\H,0,-5.0620582909,2.2257870628,1.2758379164\H,0,-5.88019
 41865,0.9201749285,0.4188090176\H,0,-5.1165484349,2.2453245474,-0.4932
 446399\N,0,-2.2650160297,-0.7315033921,1.0977521139\O,0,-1.8328419829,
 -1.6873764194,1.8607462083\C,0,-3.4529780693,-0.2179009756,1.255832258
 4\C,0,-4.4134328821,-0.665934752,2.3108165873\H,0,-3.9296121745,-1.429
 777751,2.9162608379\H,0,-5.3125437546,-1.0860896553,1.8622414492\H,0,-
 4.7019038928,0.1690308728,2.9460017153\N,0,0.0147279166,-1.371867804,-
 0.4104942624\O,0,0.2667508858,-2.2809931213,0.5741765846\C,0,0.7024653
 083,-1.4287705318,-1.5046059799\C,0,1.7631771013,-2.4404507984,-1.7728
 967588\H,0,1.6181017108,-2.8927962569,-2.7511171566\H,0,1.7393016457,-
 3.2073950382,-1.0032355044\H,0,2.7400845478,-1.9597734594,-1.760909581
 2\N,0,-0.540183208,0.43797575,-2.0266929077\O,0,-0.9308740384,1.442311
 0885,-2.7485266891\C,0,0.3743357826,-0.3897808572,-2.4494259902\C,0,1.
 0505970795,-0.2620482082,-3.7767681329\H,0,0.6916276348,0.6428460477,-
 4.2628021927\H,0,0.8229766201,-1.1180356244,-4.4106115187\H,0,2.129583
 0348,-0.2024851284,-3.6520656946\H,0,-2.1588715942,2.0189326557,-2.045
 039816\H,0,-0.5194359651,-2.1552913583,1.2374251325\C,0,-0.2904237574,
 1.3434575435,0.7042162397\H,0,-0.6714149001,2.2908179124,0.3246362432\
 H,0,-0.6375987537,1.1388185535,1.716854872\C,0,1.1519546419,1.24401694
 17,0.5780164808\C,0,1.8385903752,0.4174603679,1.4086550351\H,0,1.25090
 55522,-0.1935911751,2.0822567323\C,0,1.8040556038,2.0941220795,-0.4743
 244354\H,0,2.712090695,1.6323386716,-0.8518177855\H,0,1.1191661878,2.2
 626806067,-1.3000727027\H,0,2.0569046704,3.0684525135,-0.0572365324\C,
 0,3.2632050522,0.1581320838,1.471400023\C,0,3.6779609247,-1.1330554972
 ,1.823741151\C,0,4.2457967929,1.1219714761,1.2278126131\C,0,5.01780277
 19,-1.4599688099,1.8754842194\H,0,2.9285552531,-1.8839969149,2.0278042
 683\C,0,5.5875496394,0.7946314417,1.2999079638\H,0,3.9605442117,2.1407
 805503,1.0250282658\C,0,5.9806973092,-0.4973421249,1.6094419918\H,0,5.
 316600674,-2.4662780758,2.1312868911\H,0,6.3331364212,1.5546724697,1.1
 155795508\H,0,7.0296686581,-0.7503305226,1.6560106435\\Version=ES64L-G
 16RevC.01\State=1-A\HF=-1365.9305241\RMSD=8.708e-09\Dipole=-0.0890839,
 -0.2459636,-0.2983483\Quadrupole=16.7015657,-7.4543059,-9.2472598,-2.4
 438487,-9.5755978,10.7229007\PG=C01 [X(C18H25Co1N4O4)]\\@
 The archive entry for this job was punched.


 EVERYTHING'S GOT A MORAL, IF ONLY YOU CAN FIND IT.

                                    -- LEWIS CARROL, ALICE IN WONDERLAND
 Job cpu time:       0 days  0 hours 19 minutes 38.9 seconds.
 Elapsed time:       0 days  0 hours  1 minutes 15.8 seconds.
 File lengths (MBytes):  RWF=    328 Int=      0 D2E=      0 Chk=     14 Scr=      1
 Normal termination of Gaussian 16 at Thu Mar  2 08:22:52 2023.
