 Entering Gaussian System, Link 0=g16
 Initial command:
 /opt/local/g16/l1.exe "/data/tmp/cjd/Gau-7944.inp" -scrdir="/data/tmp/cjd/"
 Entering Link 1 = /opt/local/g16/l1.exe PID=      7945.
  
 Copyright (c) 1988-2019, Gaussian, Inc.  All Rights Reserved.
  
 This is part of the Gaussian(R) 16 program.  It is based on
 the Gaussian(R) 09 system (copyright 2009, Gaussian, Inc.),
 the Gaussian(R) 03 system (copyright 2003, Gaussian, Inc.),
 the Gaussian(R) 98 system (copyright 1998, Gaussian, Inc.),
 the Gaussian(R) 94 system (copyright 1995, Gaussian, Inc.),
 the Gaussian 92(TM) system (copyright 1992, Gaussian, Inc.),
 the Gaussian 90(TM) system (copyright 1990, Gaussian, Inc.),
 the Gaussian 88(TM) system (copyright 1988, Gaussian, Inc.),
 the Gaussian 86(TM) system (copyright 1986, Carnegie Mellon
 University), and the Gaussian 82(TM) system (copyright 1983,
 Carnegie Mellon University). Gaussian is a federally registered
 trademark of Gaussian, Inc.
  
 This software contains proprietary and confidential information,
 including trade secrets, belonging to Gaussian, Inc.
  
 This software is provided under written license and may be
 used, copied, transmitted, or stored only in accord with that
 written license.
  
 The following legend is applicable only to US Government
 contracts under FAR:
  
                    RESTRICTED RIGHTS LEGEND
  
 Use, reproduction and disclosure by the US Government is
 subject to restrictions as set forth in subparagraphs (a)
 and (c) of the Commercial Computer Software - Restricted
 Rights clause in FAR 52.227-19.
  
 Gaussian, Inc.
 340 Quinnipiac St., Bldg. 40, Wallingford CT 06492
  
  
 ---------------------------------------------------------------
 Warning -- This program may not be used in any manner that
 competes with the business of Gaussian, Inc. or will provide
 assistance to any competitor of Gaussian, Inc.  The licensee
 of this program is prohibited from giving any competitor of
 Gaussian, Inc. access to this program.  By using this program,
 the user acknowledges that Gaussian, Inc. is engaged in the
 business of creating and licensing software in the field of
 computational chemistry and represents and warrants to the
 licensee that it is not a competitor of Gaussian, Inc. and that
 it will not use this program in any manner prohibited above.
 ---------------------------------------------------------------
  

 Cite this work as:
 Gaussian 16, Revision C.01,
 M. J. Frisch, G. W. Trucks, H. B. Schlegel, G. E. Scuseria, 
 M. A. Robb, J. R. Cheeseman, G. Scalmani, V. Barone, 
 G. A. Petersson, H. Nakatsuji, X. Li, M. Caricato, A. V. Marenich, 
 J. Bloino, B. G. Janesko, R. Gomperts, B. Mennucci, H. P. Hratchian, 
 J. V. Ortiz, A. F. Izmaylov, J. L. Sonnenberg, D. Williams-Young, 
 F. Ding, F. Lipparini, F. Egidi, J. Goings, B. Peng, A. Petrone, 
 T. Henderson, D. Ranasinghe, V. G. Zakrzewski, J. Gao, N. Rega, 
 G. Zheng, W. Liang, M. Hada, M. Ehara, K. Toyota, R. Fukuda, 
 J. Hasegawa, M. Ishida, T. Nakajima, Y. Honda, O. Kitao, H. Nakai, 
 T. Vreven, K. Throssell, J. A. Montgomery, Jr., J. E. Peralta, 
 F. Ogliaro, M. J. Bearpark, J. J. Heyd, E. N. Brothers, K. N. Kudin, 
 V. N. Staroverov, T. A. Keith, R. Kobayashi, J. Normand, 
 K. Raghavachari, A. P. Rendell, J. C. Burant, S. S. Iyengar, 
 J. Tomasi, M. Cossi, J. M. Millam, M. Klene, C. Adamo, R. Cammi, 
 J. W. Ochterski, R. L. Martin, K. Morokuma, O. Farkas, 
 J. B. Foresman, and D. J. Fox, Gaussian, Inc., Wallingford CT, 2019.
 
 ******************************************
 Gaussian 16:  ES64L-G16RevC.01  3-Jul-2019
                 2-Mar-2023 
 ******************************************
 %nproc=16
 Will use up to   16 processors via shared memory.
 %mem=60GB
 -----------------------------------------------------------
 # B3LYP/genecp em=GD3BJ int=fine scrf=(smd,solvent=acetone)
 -----------------------------------------------------------
 1/38=1,172=1/1;
 2/12=2,17=6,18=5,40=1/2;
 3/5=7,11=2,16=1,17=8,25=1,30=1,70=32201,72=19,74=-5,75=-4,124=41/1,2,3;
 4//1;
 5/5=2,38=5,53=19/2;
 6/7=2,8=2,9=2,10=2,28=1/1;
 99/5=1,9=1/99;
 --------
 Template
 --------
 Symbolic Z-matrix:
 Charge =  0 Multiplicity = 1
 Co                   -1.24021  -0.53888  -0.34574 
 N                    -1.5199    1.30724  -0.21913 
 O                    -0.69839   2.28132  -0.70614 
 C                    -2.61791   1.65806   0.37059 
 C                    -3.05393   3.07275   0.54556 
 H                    -2.41263   3.72782  -0.03854 
 H                    -2.98352   3.35188   1.59571 
 H                    -4.08805   3.19274   0.23177 
 N                    -2.84498  -0.61415   0.64622 
 O                    -3.4102   -1.71509   1.0297 
 C                    -3.39203   0.54824   0.86905 
 C                    -4.69203   0.72515   1.58651 
 H                    -4.57097   1.38739   2.44117 
 H                    -5.03236  -0.2499    1.92939 
 H                    -5.44553   1.14937   0.92431 
 N                    -1.12446  -2.38678  -0.70278 
 O                    -1.87447  -3.37052  -0.12513 
 C                    -0.23447  -2.71699  -1.58246 
 C                     0.01522  -4.11741  -2.02916 
 H                     0.0091   -4.17539  -3.1151 
 H                    -0.74907  -4.77294  -1.61982 
 H                     0.99104  -4.44807  -1.67691 
 N                     0.19071  -0.45177  -1.57739 
 O                     0.75866   0.64786  -1.96003 
 C                     0.52109  -1.60137  -2.09709 
 C                     1.5902   -1.75861  -3.13114 
 H                     2.08186  -0.79707  -3.26535 
 H                     1.16617  -2.07414  -4.08367 
 H                     2.32204  -2.49961  -2.81696 
 H                     0.00975   1.75881  -1.26084 
 H                    -2.57209  -2.85486   0.43846 
 C                    -0.08321  -0.71065   1.32234 
 H                    -0.80876  -0.70094   2.13406 
 H                     0.35832  -1.69856   1.19761 
 C                     0.91241   0.3368    1.43507 
 C                     2.15071   0.12339   0.91403 
 H                     2.32353  -0.84879   0.46721 
 C                     0.5456    1.57111   2.20776 
 H                     1.39541   1.92153   2.78811 
 H                     0.23585   2.37111   1.53909 
 H                    -0.28091   1.35723   2.88088 
 C                     3.31806   0.97774   0.91229 
 C                     3.2702    2.37568   0.91813 
 C                     4.57905   0.36581   0.86459 
 C                     4.43403   3.12172   0.90718 
 H                     2.3218    2.88239   0.88365 
 C                     5.73825   1.11381   0.86955 
 H                     4.63826  -0.71317   0.84063 
 C                     5.67172   2.49909   0.8966 
 H                     4.37508   4.20058   0.90328 
 H                     6.69881   0.61955   0.84568 
 H                     6.57768   3.08707   0.89604 
 
 Stoichiometry    C18H25CoN4O4
 Framework group  C1[X(C18H25CoN4O4)]
 Deg. of freedom   150
 Full point group                 C1      NOp   1
 Largest Abelian subgroup         C1      NOp   1
 Largest concise Abelian subgroup C1      NOp   1
                         Standard orientation:                         
 ---------------------------------------------------------------------
 Center     Atomic      Atomic             Coordinates (Angstroms)
 Number     Number       Type             X           Y           Z
 ---------------------------------------------------------------------
      1         27           0       -1.400382    0.242237    0.171043
      2          7           0       -1.077704   -1.419879    0.968311
      3          8           0       -0.027068   -1.733126    1.780055
      4          6           0       -1.967737   -2.328410    0.725641
      5          6           0       -1.925173   -3.707577    1.289715
      6          1           0       -1.151830   -3.767337    2.051247
      7          1           0       -1.699896   -4.421357    0.498867
      8          1           0       -2.888214   -3.971513    1.720011
      9          7           0       -2.876809   -0.665619   -0.577881
     10          8           0       -3.731506   -0.119845   -1.384256
     11          6           0       -3.015297   -1.894750   -0.165419
     12          6           0       -4.142540   -2.783955   -0.583344
     13          1           0       -3.762368   -3.702480   -1.025421
     14          1           0       -4.747499   -2.253081   -1.315676
     15          1           0       -4.767951   -3.043742    0.269656
     16          7           0       -1.894470    1.966695   -0.410121
     17          8           0       -2.874290    2.266068   -1.312479
     18          6           0       -1.214615    2.934369    0.115575
     19          6           0       -1.447560    4.375741   -0.186500
     20          1           0       -1.545002    4.944934    0.735011
     21          1           0       -2.349359    4.482456   -0.783828
     22          1           0       -0.603211    4.776228   -0.745364
     23          7           0       -0.101111    1.202678    1.151611
     24          8           0        0.755811    0.658411    1.956359
     25          6           0       -0.183904    2.498059    1.025307
     26          6           0        0.709408    3.453018    1.751260
     27          1           0        1.467569    2.878985    2.280385
     28          1           0        0.144404    4.041332    2.473283
     29          1           0        1.191404    4.133972    1.053143
     30          1           0        0.442233   -0.819946    1.947470
     31          1           0       -3.335177    1.357443   -1.491948
     32          6           0       -0.245586   -0.066516   -1.478742
     33          1           0       -0.874822   -0.687976   -2.113759
     34          1           0       -0.145681    0.939785   -1.883534
     35          6           0        1.033546   -0.675761   -1.172523
     36          6           0        2.104198    0.129827   -0.937693
     37          1           0        1.932737    1.196181   -1.027918
     38          6           0        1.125519   -2.173793   -1.223298
     39          1           0        2.079569   -2.480932   -1.644294
     40          1           0        1.037826   -2.603025   -0.227733
     41          1           0        0.321161   -2.575822   -1.834302
     42          6           0        3.477661   -0.213139   -0.640082
     43          6           0        3.871172   -1.378143    0.026609
     44          6           0        4.476836    0.698361   -1.011100
     45          6           0        5.206718   -1.628839    0.280913
     46          1           0        3.129514   -2.067927    0.389294
     47          6           0        5.809682    0.436972   -0.769316
     48          1           0        4.192887    1.613755   -1.510811
     49          6           0        6.182981   -0.733589   -0.125416
     50          1           0        5.488998   -2.530626    0.804870
     51          1           0        6.562829    1.148383   -1.076249
     52          1           0        7.225417   -0.938518    0.069040
 ---------------------------------------------------------------------
 Rotational constants (GHZ):           0.2571426           0.1383850           0.1065958
 General basis read from cards:  (5D, 7F)
 ======================================================================================================
                                       Pseudopotential Parameters
 ======================================================================================================
  Center     Atomic      Valence      Angular      Power
  Number     Number     Electrons     Momentum     of R      Exponent        Coefficient   SO-Coeffient
 ======================================================================================================
    1         27           17
                                      D and up 
                                                     1      434.1076104      -10.00000000    0.00000000
                                                     2       78.8402758      -66.72402760    0.00000000
                                                     2       19.6037749      -11.71922430    0.00000000
                                      S - D
                                                     0      151.2307582        3.00000000    0.00000000
                                                     1      169.6790026       20.15531100    0.00000000
                                                     2       64.9909423      413.37622440    0.00000000
                                                     2       12.5076287      133.87277050    0.00000000
                                      P - D
                                                     0       92.7319924        5.00000000    0.00000000
                                                     1      121.1910183        6.18923530    0.00000000
                                                     2       48.6265909      326.32159190    0.00000000
                                                     2       11.9966971       73.87889700    0.00000000
    2          7
                                   No pseudopotential on this center.
    3          8
                                   No pseudopotential on this center.
    4          6
                                   No pseudopotential on this center.
    5          6
                                   No pseudopotential on this center.
    6          1
                                   No pseudopotential on this center.
    7          1
                                   No pseudopotential on this center.
    8          1
                                   No pseudopotential on this center.
    9          7
                                   No pseudopotential on this center.
   10          8
                                   No pseudopotential on this center.
   11          6
                                   No pseudopotential on this center.
   12          6
                                   No pseudopotential on this center.
   13          1
                                   No pseudopotential on this center.
   14          1
                                   No pseudopotential on this center.
   15          1
                                   No pseudopotential on this center.
   16          7
                                   No pseudopotential on this center.
   17          8
                                   No pseudopotential on this center.
   18          6
                                   No pseudopotential on this center.
   19          6
                                   No pseudopotential on this center.
   20          1
                                   No pseudopotential on this center.
   21          1
                                   No pseudopotential on this center.
   22          1
                                   No pseudopotential on this center.
   23          7
                                   No pseudopotential on this center.
   24          8
                                   No pseudopotential on this center.
   25          6
                                   No pseudopotential on this center.
   26          6
                                   No pseudopotential on this center.
   27          1
                                   No pseudopotential on this center.
   28          1
                                   No pseudopotential on this center.
   29          1
                                   No pseudopotential on this center.
   30          1
                                   No pseudopotential on this center.
   31          1
                                   No pseudopotential on this center.
   32          6
                                   No pseudopotential on this center.
   33          1
                                   No pseudopotential on this center.
   34          1
                                   No pseudopotential on this center.
   35          6
                                   No pseudopotential on this center.
   36          6
                                   No pseudopotential on this center.
   37          1
                                   No pseudopotential on this center.
   38          6
                                   No pseudopotential on this center.
   39          1
                                   No pseudopotential on this center.
   40          1
                                   No pseudopotential on this center.
   41          1
                                   No pseudopotential on this center.
   42          6
                                   No pseudopotential on this center.
   43          6
                                   No pseudopotential on this center.
   44          6
                                   No pseudopotential on this center.
   45          6
                                   No pseudopotential on this center.
   46          1
                                   No pseudopotential on this center.
   47          6
                                   No pseudopotential on this center.
   48          1
                                   No pseudopotential on this center.
   49          6
                                   No pseudopotential on this center.
   50          1
                                   No pseudopotential on this center.
   51          1
                                   No pseudopotential on this center.
   52          1
                                   No pseudopotential on this center.
 ======================================================================================================
 There are   464 symmetry adapted cartesian basis functions of A   symmetry.
 There are   436 symmetry adapted basis functions of A   symmetry.
   436 basis functions,   880 primitive gaussians,   464 cartesian basis functions
   105 alpha electrons      105 beta electrons
       nuclear repulsion energy      2987.6929669973 Hartrees.
 NAtoms=   52 NActive=   52 NUniq=   52 SFac= 1.00D+00 NAtFMM=   60 NAOKFM=F Big=F
 Integral buffers will be    131072 words long.
 Raffenetti 2 integral format.
 Two-electron integral symmetry is turned on.
 Nuclear repulsion after empirical dispersion term =     2987.5696569432 Hartrees.
 ------------------------------------------------------------------------------
 Polarizable Continuum Model (PCM)
 =================================
 Model                : PCM.
 Atomic radii         : SMD-Coulomb.
 Polarization charges : Total charges.
 Charge compensation  : None.
 Solution method      : On-the-fly selection.
 Cavity type          : VdW (van der Waals Surface) (Alpha=1.000).
 Cavity algorithm     : GePol (No added spheres)
                        Default sphere list used, NSphG=   52.
                        Lebedev-Laikov grids with approx.  5.0 points / Ang**2.
                        Smoothing algorithm: York/Karplus (Gamma=1.0000).
                        Polarization charges: spherical gaussians, with
                                              point-specific exponents (IZeta= 3).
                        Self-potential: point-specific (ISelfS= 7).
                        Self-field    : sphere-specific E.n sum rule (ISelfD= 2).
 Solvent              : Acetone, Eps=  20.493000 Eps(inf)=   1.846337
 ------------------------------------------------------------------------------
 ------------------------------------------------------------------------------
 Atomic radii for non-electrostatic terms: SMD-CDS.
 ------------------------------------------------------------------------------
 Nuclear repulsion after PCM non-electrostatic terms =     2987.5629858841 Hartrees.
 One-electron integrals computed using PRISM.
   1 Symmetry operations used in ECPInt.
 ECPInt:  NShTT=   13203 NPrTT=   81964 LenC2=   11306 LenP2D=   39146.
 LDataN:  DoStor=T MaxTD1= 4 Len=   56
 NBasis=   436 RedAO= T EigKep=  4.34D-04  NBF=   436
 NBsUse=   436 1.00D-06 EigRej= -1.00D+00 NBFU=   436
 ExpMin= 2.30D-02 ExpMax= 5.48D+03 ExpMxC= 8.25D+02 IAcc=3 IRadAn=         5 AccDes= 0.00D+00
 Harris functional with IExCor=  402 and IRadAn=       5 diagonalized for initial guess.
 HarFok:  IExCor=  402 AccDes= 0.00D+00 IRadAn=         5 IDoV= 1 UseB2=F ITyADJ=14
 ICtDFT=  3500011 ScaDFX=  1.000000  1.000000  1.000000  1.000000
 FoFCou: FMM=F IPFlag=           0 FMFlag=      100000 FMFlg1=           0
         NFxFlg=           0 DoJE=T BraDBF=F KetDBF=T FulRan=T
         wScrn=  0.000000 ICntrl=       500 IOpCl=  0 I1Cent=   200000004 NGrid=           0
         NMat0=    1 NMatS0=      1 NMatT0=    0 NMatD0=    1 NMtDS0=    0 NMtDT0=    0
 Petite list used in FoFCou.
 Requested convergence on RMS density matrix=1.00D-08 within 128 cycles.
 Requested convergence on MAX density matrix=1.00D-06.
 Requested convergence on             energy=1.00D-06.
 No special actions if energy rises.
 Inv3:  Mode=1 IEnd=    41292300.
 Iteration    1 A*A^-1 deviation from unit magnitude is 3.77D-15 for   2938.
 Iteration    1 A*A^-1 deviation from orthogonality  is 2.66D-15 for   2230    608.
 Iteration    1 A^-1*A deviation from unit magnitude is 3.33D-15 for    115.
 Iteration    1 A^-1*A deviation from orthogonality  is 5.06D-15 for   1396   1326.
 EnCoef did     4 forward-backward iterations
 Error on total polarization charges =  0.04574
 SCF Done:  E(RB3LYP) =  -1365.93076382     A.U. after   20 cycles
            NFock= 20  Conv=0.75D-08     -V/T= 2.0505
 SMD-CDS (non-electrostatic) energy       (kcal/mol) =      -4.19
 (included in total energy above)

 **********************************************************************

            Population analysis using the SCF Density.

 **********************************************************************

 Orbital symmetries:
       Occupied  (A) (A) (A) (A) (A) (A) (A) (A) (A) (A) (A) (A)
                 (A) (A) (A) (A) (A) (A) (A) (A) (A) (A) (A) (A)
                 (A) (A) (A) (A) (A) (A) (A) (A) (A) (A) (A) (A)
                 (A) (A) (A) (A) (A) (A) (A) (A) (A) (A) (A) (A)
                 (A) (A) (A) (A) (A) (A) (A) (A) (A) (A) (A) (A)
                 (A) (A) (A) (A) (A) (A) (A) (A) (A) (A) (A) (A)
                 (A) (A) (A) (A) (A) (A) (A) (A) (A) (A) (A) (A)
                 (A) (A) (A) (A) (A) (A) (A) (A) (A) (A) (A) (A)
                 (A) (A) (A) (A) (A) (A) (A) (A) (A)
       Virtual   (A) (A) (A) (A) (A) (A) (A) (A) (A) (A) (A) (A)
                 (A) (A) (A) (A) (A) (A) (A) (A) (A) (A) (A) (A)
                 (A) (A) (A) (A) (A) (A) (A) (A) (A) (A) (A) (A)
                 (A) (A) (A) (A) (A) (A) (A) (A) (A) (A) (A) (A)
                 (A) (A) (A) (A) (A) (A) (A) (A) (A) (A) (A) (A)
                 (A) (A) (A) (A) (A) (A) (A) (A) (A) (A) (A) (A)
                 (A) (A) (A) (A) (A) (A) (A) (A) (A) (A) (A) (A)
                 (A) (A) (A) (A) (A) (A) (A) (A) (A) (A) (A) (A)
                 (A) (A) (A) (A) (A) (A) (A) (A) (A) (A) (A) (A)
                 (A) (A) (A) (A) (A) (A) (A) (A) (A) (A) (A) (A)
                 (A) (A) (A) (A) (A) (A) (A) (A) (A) (A) (A) (A)
                 (A) (A) (A) (A) (A) (A) (A) (A) (A) (A) (A) (A)
                 (A) (A) (A) (A) (A) (A) (A) (A) (A) (A) (A) (A)
                 (A) (A) (A) (A) (A) (A) (A) (A) (A) (A) (A) (A)
                 (A) (A) (A) (A) (A) (A) (A) (A) (A) (A) (A) (A)
                 (A) (A) (A) (A) (A) (A) (A) (A) (A) (A) (A) (A)
                 (A) (A) (A) (A) (A) (A) (A) (A) (A) (A) (A) (A)
                 (A) (A) (A) (A) (A) (A) (A) (A) (A) (A) (A) (A)
                 (A) (A) (A) (A) (A) (A) (A) (A) (A) (A) (A) (A)
                 (A) (A) (A) (A) (A) (A) (A) (A) (A) (A) (A) (A)
                 (A) (A) (A) (A) (A) (A) (A) (A) (A) (A) (A) (A)
                 (A) (A) (A) (A) (A) (A) (A) (A) (A) (A) (A) (A)
                 (A) (A) (A) (A) (A) (A) (A) (A) (A) (A) (A) (A)
                 (A) (A) (A) (A) (A) (A) (A) (A) (A) (A) (A) (A)
                 (A) (A) (A) (A) (A) (A) (A) (A) (A) (A) (A) (A)
                 (A) (A) (A) (A) (A) (A) (A) (A) (A) (A) (A) (A)
                 (A) (A) (A) (A) (A) (A) (A) (A) (A) (A) (A) (A)
                 (A) (A) (A) (A) (A) (A) (A)
 The electronic state is 1-A.
 Alpha  occ. eigenvalues --  -19.16569 -19.16542 -19.12742 -19.12543 -14.41000
 Alpha  occ. eigenvalues --  -14.40862 -14.40450 -14.40411 -10.23674 -10.23567
 Alpha  occ. eigenvalues --  -10.21276 -10.21236 -10.18628 -10.18394 -10.17596
 Alpha  occ. eigenvalues --  -10.17559 -10.17531 -10.17504 -10.17470 -10.17457
 Alpha  occ. eigenvalues --  -10.17435 -10.17379 -10.17204 -10.16811 -10.16754
 Alpha  occ. eigenvalues --  -10.15564  -3.74352  -2.44349  -2.43606  -2.42516
 Alpha  occ. eigenvalues --   -1.09012  -1.08466  -1.06882  -1.06323  -0.90558
 Alpha  occ. eigenvalues --   -0.89356  -0.85828  -0.81861  -0.80934  -0.80528
 Alpha  occ. eigenvalues --   -0.75342  -0.74638  -0.74251  -0.74175  -0.70623
 Alpha  occ. eigenvalues --   -0.70486  -0.68407  -0.66375  -0.62294  -0.60276
 Alpha  occ. eigenvalues --   -0.60111  -0.58824  -0.54844  -0.53523  -0.53019
 Alpha  occ. eigenvalues --   -0.52059  -0.51261  -0.50822  -0.49404  -0.49013
 Alpha  occ. eigenvalues --   -0.47614  -0.46909  -0.46615  -0.46131  -0.45445
 Alpha  occ. eigenvalues --   -0.44423  -0.43679  -0.42674  -0.42352  -0.42198
 Alpha  occ. eigenvalues --   -0.42062  -0.41896  -0.41456  -0.40885  -0.40543
 Alpha  occ. eigenvalues --   -0.39982  -0.39616  -0.38993  -0.38661  -0.38169
 Alpha  occ. eigenvalues --   -0.38065  -0.38008  -0.37573  -0.37233  -0.36785
 Alpha  occ. eigenvalues --   -0.36350  -0.34829  -0.34362  -0.34257  -0.33351
 Alpha  occ. eigenvalues --   -0.33121  -0.30879  -0.30326  -0.28319  -0.27900
 Alpha  occ. eigenvalues --   -0.27680  -0.26736  -0.26210  -0.25046  -0.25009
 Alpha  occ. eigenvalues --   -0.24950  -0.22285  -0.20095  -0.19736  -0.19496
 Alpha virt. eigenvalues --   -0.09259  -0.03895  -0.03405  -0.00345   0.00275
 Alpha virt. eigenvalues --    0.00477   0.02657   0.02731   0.03240   0.06369
 Alpha virt. eigenvalues --    0.06763   0.06958   0.07745   0.11163   0.12163
 Alpha virt. eigenvalues --    0.12991   0.13603   0.14118   0.14759   0.15156
 Alpha virt. eigenvalues --    0.15317   0.15976   0.16480   0.16995   0.17072
 Alpha virt. eigenvalues --    0.17285   0.17628   0.18154   0.18274   0.18962
 Alpha virt. eigenvalues --    0.19161   0.19458   0.20007   0.20607   0.21494
 Alpha virt. eigenvalues --    0.22065   0.23186   0.23344   0.23785   0.24384
 Alpha virt. eigenvalues --    0.24631   0.24896   0.25144   0.25951   0.26836
 Alpha virt. eigenvalues --    0.27544   0.28279   0.28651   0.29397   0.30234
 Alpha virt. eigenvalues --    0.31526   0.31961   0.32364   0.33916   0.34507
 Alpha virt. eigenvalues --    0.35492   0.36002   0.36559   0.40244   0.41276
 Alpha virt. eigenvalues --    0.41883   0.42757   0.43369   0.44511   0.46749
 Alpha virt. eigenvalues --    0.48215   0.50558   0.51460   0.51706   0.52854
 Alpha virt. eigenvalues --    0.53052   0.54674   0.55290   0.55622   0.56387
 Alpha virt. eigenvalues --    0.56539   0.57095   0.57713   0.58057   0.58522
 Alpha virt. eigenvalues --    0.59372   0.59462   0.59699   0.60373   0.60595
 Alpha virt. eigenvalues --    0.61165   0.62299   0.62437   0.63078   0.63660
 Alpha virt. eigenvalues --    0.63894   0.64956   0.65286   0.66349   0.66930
 Alpha virt. eigenvalues --    0.67362   0.68642   0.69276   0.69574   0.70276
 Alpha virt. eigenvalues --    0.70710   0.72111   0.73030   0.73529   0.74028
 Alpha virt. eigenvalues --    0.75271   0.75558   0.76441   0.76807   0.78087
 Alpha virt. eigenvalues --    0.79268   0.81051   0.81813   0.82833   0.83205
 Alpha virt. eigenvalues --    0.83999   0.84326   0.84981   0.85171   0.85498
 Alpha virt. eigenvalues --    0.85831   0.86204   0.86372   0.86940   0.88068
 Alpha virt. eigenvalues --    0.88618   0.89656   0.89784   0.89875   0.91317
 Alpha virt. eigenvalues --    0.91463   0.91717   0.92230   0.92516   0.92969
 Alpha virt. eigenvalues --    0.93602   0.94492   0.94978   0.95020   0.95425
 Alpha virt. eigenvalues --    0.95862   0.96460   0.96857   0.97816   0.98513
 Alpha virt. eigenvalues --    0.99670   1.00691   1.01038   1.02281   1.02741
 Alpha virt. eigenvalues --    1.03478   1.03563   1.04726   1.05093   1.05575
 Alpha virt. eigenvalues --    1.06792   1.07483   1.07688   1.09446   1.10198
 Alpha virt. eigenvalues --    1.10675   1.12928   1.14406   1.15509   1.16117
 Alpha virt. eigenvalues --    1.16489   1.17554   1.19994   1.20485   1.21500
 Alpha virt. eigenvalues --    1.22055   1.23305   1.24671   1.25033   1.26397
 Alpha virt. eigenvalues --    1.27076   1.28307   1.29751   1.29835   1.31267
 Alpha virt. eigenvalues --    1.33711   1.33772   1.34924   1.35671   1.35891
 Alpha virt. eigenvalues --    1.37039   1.37717   1.38670   1.39029   1.39285
 Alpha virt. eigenvalues --    1.39368   1.40135   1.41901   1.43526   1.43771
 Alpha virt. eigenvalues --    1.44945   1.45257   1.46027   1.48224   1.49958
 Alpha virt. eigenvalues --    1.50208   1.50774   1.51882   1.52422   1.53389
 Alpha virt. eigenvalues --    1.55806   1.59311   1.60684   1.61218   1.61995
 Alpha virt. eigenvalues --    1.63433   1.68792   1.71653   1.74283   1.74322
 Alpha virt. eigenvalues --    1.75664   1.76959   1.77197   1.77780   1.78885
 Alpha virt. eigenvalues --    1.79611   1.79770   1.80137   1.80988   1.81433
 Alpha virt. eigenvalues --    1.82103   1.82586   1.83914   1.84076   1.85316
 Alpha virt. eigenvalues --    1.87682   1.88852   1.89198   1.89929   1.90518
 Alpha virt. eigenvalues --    1.91585   1.92468   1.93105   1.94025   1.94484
 Alpha virt. eigenvalues --    1.95330   1.96272   1.97191   1.98754   1.99019
 Alpha virt. eigenvalues --    1.99495   2.00372   2.01257   2.03120   2.05226
 Alpha virt. eigenvalues --    2.06347   2.08977   2.09760   2.11735   2.12460
 Alpha virt. eigenvalues --    2.12836   2.13378   2.14442   2.14813   2.15877
 Alpha virt. eigenvalues --    2.15944   2.17638   2.18529   2.19354   2.20482
 Alpha virt. eigenvalues --    2.22945   2.24052   2.24126   2.27299   2.28249
 Alpha virt. eigenvalues --    2.28265   2.29770   2.30370   2.30610   2.31958
 Alpha virt. eigenvalues --    2.32755   2.32940   2.33209   2.33264   2.34063
 Alpha virt. eigenvalues --    2.34655   2.35186   2.36556   2.37433   2.37948
 Alpha virt. eigenvalues --    2.41676   2.44000   2.46018   2.48163   2.51135
 Alpha virt. eigenvalues --    2.51890   2.52855   2.53471   2.54622   2.55439
 Alpha virt. eigenvalues --    2.56197   2.56668   2.57867   2.58784   2.60557
 Alpha virt. eigenvalues --    2.64379   2.64638   2.65027   2.66160   2.66513
 Alpha virt. eigenvalues --    2.67567   2.68446   2.70038   2.73859   2.75735
 Alpha virt. eigenvalues --    2.76943   2.77559   2.78596   2.81985   2.85913
 Alpha virt. eigenvalues --    2.86857   2.91177   2.91475   2.93443   2.96315
 Alpha virt. eigenvalues --    3.02951   3.05005   3.06327   3.08430   3.09970
 Alpha virt. eigenvalues --    3.10846   3.21768   3.29197   3.32390   3.46557
 Alpha virt. eigenvalues --   21.51187
          Condensed to atoms (all electrons):
 Mulliken charges:
               1
     1  Co   0.334969
     2  N   -0.177988
     3  O   -0.569314
     4  C    0.327865
     5  C   -0.546367
     6  H    0.199877
     7  H    0.204795
     8  H    0.198885
     9  N   -0.069725
    10  O   -0.556785
    11  C    0.265414
    12  C   -0.547546
    13  H    0.186391
    14  H    0.189995
    15  H    0.188822
    16  N   -0.167171
    17  O   -0.573950
    18  C    0.321976
    19  C   -0.547029
    20  H    0.198906
    21  H    0.200063
    22  H    0.204196
    23  N   -0.078629
    24  O   -0.553015
    25  C    0.268641
    26  C   -0.547410
    27  H    0.190611
    28  H    0.188474
    29  H    0.185025
    30  H    0.473577
    31  H    0.471093
    32  C   -0.410420
    33  H    0.187881
    34  H    0.193409
    35  C    0.233665
    36  C   -0.245775
    37  H    0.150713
    38  C   -0.559095
    39  H    0.166356
    40  H    0.193330
    41  H    0.166148
    42  C    0.150455
    43  C   -0.199708
    44  C   -0.204526
    45  C   -0.158005
    46  H    0.161206
    47  C   -0.153669
    48  H    0.153110
    49  C   -0.150695
    50  H    0.153565
    51  H    0.153835
    52  H    0.153578
 Sum of Mulliken charges =  -0.00000
 Mulliken charges with hydrogens summed into heavy atoms:
               1
     1  Co   0.334969
     2  N   -0.177988
     3  O   -0.095737
     4  C    0.327865
     5  C    0.057190
     9  N   -0.069725
    10  O   -0.556785
    11  C    0.265414
    12  C    0.017662
    16  N   -0.167171
    17  O   -0.102857
    18  C    0.321976
    19  C    0.056136
    23  N   -0.078629
    24  O   -0.553015
    25  C    0.268641
    26  C    0.016700
    32  C   -0.029130
    35  C    0.233665
    36  C   -0.095062
    38  C   -0.033261
    42  C    0.150455
    43  C   -0.038503
    44  C   -0.051416
    45  C   -0.004441
    47  C    0.000166
    49  C    0.002883
 Electronic spatial extent (au):  <R**2>=          10455.9924
 Charge=              0.0000 electrons
 Dipole moment (field-independent basis, Debye):
    X=              0.2835    Y=             -0.2576    Z=              0.7129  Tot=              0.8093
 Quadrupole moment (field-independent basis, Debye-Ang):
   XX=           -165.7008   YY=           -131.6768   ZZ=           -174.4762
   XY=             12.2850   XZ=            -12.1931   YZ=              0.5817
 Traceless Quadrupole moment (field-independent basis, Debye-Ang):
   XX=             -8.4162   YY=             25.6078   ZZ=            -17.1916
   XY=             12.2850   XZ=            -12.1931   YZ=              0.5817
 Octapole moment (field-independent basis, Debye-Ang**2):
  XXX=             37.6083  YYY=             37.2253  ZZZ=             11.4197  XYY=            -52.4705
  XXY=            -39.2804  XXZ=             42.6719  XZZ=            -31.3200  YZZ=              6.2213
  YYZ=             23.4432  XYZ=            -19.1040
 Hexadecapole moment (field-independent basis, Debye-Ang**3):
 XXXX=          -7828.2060 YYYY=          -3771.8248 ZZZZ=          -1314.5956 XXXY=            105.6649
 XXXZ=            -77.4597 YYYX=             77.6283 YYYZ=              9.4491 ZZZX=             24.7559
 ZZZY=            -11.3037 XXYY=          -1939.5939 XXZZ=          -1690.2799 YYZZ=           -899.9339
 XXYZ=            -99.6542 YYXZ=            -23.5228 ZZXY=             17.3215
 N-N= 2.987562985884D+03 E-N=-9.166789741975D+03  KE= 1.300222907152D+03
 Unable to Open any file for archive entry.
 1\1\GINC-N204\SP\RB3LYP\GenECP\C18H25Co1N4O4\CJD\02-Mar-2023\0\\# B3LY
 P/genecp em=GD3BJ int=fine scrf=(smd,solvent=acetone)\\Template\\0,1\C
 o,0,-1.2402134903,-0.5388751932,-0.3457448878\N,0,-1.5198980308,1.3072
 377478,-0.2191339796\O,0,-0.6983946002,2.2813217988,-0.7061441128\C,0,
 -2.6179065248,1.6580587535,0.3705937177\C,0,-3.0539328225,3.072752564,
 0.5455631691\H,0,-2.4126262808,3.7278217655,-0.0385362271\H,0,-2.98351
 54503,3.3518761111,1.5957075438\H,0,-4.0880527006,3.1927358742,0.23177
 0611\N,0,-2.8449786434,-0.6141491919,0.6462172309\O,0,-3.4102026297,-1
 .7150929739,1.0297032626\C,0,-3.3920316918,0.5482382613,0.8690516141\C
 ,0,-4.6920252399,0.7251509229,1.5865078534\H,0,-4.5709704104,1.3873873
 313,2.4411654415\H,0,-5.0323610097,-0.2498953139,1.9293904129\H,0,-5.4
 455305874,1.1493705522,0.9243107417\N,0,-1.1244564982,-2.3867817923,-0
 .7027769265\O,0,-1.8744693458,-3.3705153489,-0.1251344252\C,0,-0.23447
 49274,-2.7169886983,-1.5824636393\C,0,0.0152233837,-4.1174094309,-2.02
 91617178\H,0,0.009102137,-4.1753883078,-3.1150979021\H,0,-0.7490741765
 ,-4.7729403021,-1.6198229861\H,0,0.9910446436,-4.4480740487,-1.6769140
 05\N,0,0.1907069358,-0.4517714834,-1.5773876369\O,0,0.7586558625,0.647
 8568799,-1.9600281435\C,0,0.521094101,-1.6013662232,-2.0970946121\C,0,
 1.5901966789,-1.7586089796,-3.1311435546\H,0,2.0818559417,-0.797071581
 4,-3.2653505135\H,0,1.1661725114,-2.0741412463,-4.0836674142\H,0,2.322
 0389944,-2.4996120225,-2.8169644448\H,0,0.0097481682,1.7588101773,-1.2
 608363571\H,0,-2.572094772,-2.8548569527,0.4384606739\C,0,-0.083212715
 9,-0.7106490386,1.3223418904\H,0,-0.8087628451,-0.7009416627,2.1340556
 738\H,0,0.3583207168,-1.6985607584,1.1976117973\C,0,0.9124129745,0.336
 8009066,1.4350652038\C,0,2.1507133713,0.1233903852,0.9140268063\H,0,2.
 3235280698,-0.8487915545,0.4672089399\C,0,0.5455961604,1.5711092515,2.
 2077639427\H,0,1.3954135527,1.9215256578,2.7881093393\H,0,0.2358488947
 ,2.3711144452,1.5390870466\H,0,-0.2809120345,1.3572279423,2.8808789355
 \C,0,3.3180567179,0.9777359296,0.9122915823\C,0,3.2701950605,2.3756762
 788,0.9181250664\C,0,4.5790505081,0.3658089871,0.8645900812\C,0,4.4340
 264888,3.1217189887,0.9071753561\H,0,2.3218028032,2.8823937662,0.88364
 78072\C,0,5.7382478252,1.1138058669,0.8695484219\H,0,4.638262877,-0.71
 31742611,0.8406295379\C,0,5.6717212699,2.4990906414,0.896603038\H,0,4.
 3750819428,4.2005803644,0.9032839281\H,0,6.6988118728,0.6195488312,0.8
 456763785\H,0,6.5776813737,3.0870692802,0.8960427581\\Version=ES64L-G1
 6RevC.01\State=1-A\HF=-1365.9307638\RMSD=7.468e-09\Dipole=0.0477684,0.
 2520537,-0.1886191\Quadrupole=2.9716823,1.5459845,-4.5176668,-16.01412
 ,-0.7974752,13.2432294\PG=C01 [X(C18H25Co1N4O4)]\\@
 The archive entry for this job was punched.


 NECESSARY EVIL: ONE WE LIKE TOO MUCH TO RELINQUISH.
 Job cpu time:       0 days  0 hours 18 minutes 51.5 seconds.
 Elapsed time:       0 days  0 hours  1 minutes 12.7 seconds.
 File lengths (MBytes):  RWF=    334 Int=      0 D2E=      0 Chk=     14 Scr=      1
 Normal termination of Gaussian 16 at Thu Mar  2 09:00:30 2023.
