 Entering Gaussian System, Link 0=g16
 Initial command:
 /opt/local/g16/l1.exe "/data/tmp/cjd/Gau-62222.inp" -scrdir="/data/tmp/cjd/"
 Entering Link 1 = /opt/local/g16/l1.exe PID=     62223.
  
 Copyright (c) 1988-2019, Gaussian, Inc.  All Rights Reserved.
  
 This is part of the Gaussian(R) 16 program.  It is based on
 the Gaussian(R) 09 system (copyright 2009, Gaussian, Inc.),
 the Gaussian(R) 03 system (copyright 2003, Gaussian, Inc.),
 the Gaussian(R) 98 system (copyright 1998, Gaussian, Inc.),
 the Gaussian(R) 94 system (copyright 1995, Gaussian, Inc.),
 the Gaussian 92(TM) system (copyright 1992, Gaussian, Inc.),
 the Gaussian 90(TM) system (copyright 1990, Gaussian, Inc.),
 the Gaussian 88(TM) system (copyright 1988, Gaussian, Inc.),
 the Gaussian 86(TM) system (copyright 1986, Carnegie Mellon
 University), and the Gaussian 82(TM) system (copyright 1983,
 Carnegie Mellon University). Gaussian is a federally registered
 trademark of Gaussian, Inc.
  
 This software contains proprietary and confidential information,
 including trade secrets, belonging to Gaussian, Inc.
  
 This software is provided under written license and may be
 used, copied, transmitted, or stored only in accord with that
 written license.
  
 The following legend is applicable only to US Government
 contracts under FAR:
  
                    RESTRICTED RIGHTS LEGEND
  
 Use, reproduction and disclosure by the US Government is
 subject to restrictions as set forth in subparagraphs (a)
 and (c) of the Commercial Computer Software - Restricted
 Rights clause in FAR 52.227-19.
  
 Gaussian, Inc.
 340 Quinnipiac St., Bldg. 40, Wallingford CT 06492
  
  
 ---------------------------------------------------------------
 Warning -- This program may not be used in any manner that
 competes with the business of Gaussian, Inc. or will provide
 assistance to any competitor of Gaussian, Inc.  The licensee
 of this program is prohibited from giving any competitor of
 Gaussian, Inc. access to this program.  By using this program,
 the user acknowledges that Gaussian, Inc. is engaged in the
 business of creating and licensing software in the field of
 computational chemistry and represents and warrants to the
 licensee that it is not a competitor of Gaussian, Inc. and that
 it will not use this program in any manner prohibited above.
 ---------------------------------------------------------------
  

 Cite this work as:
 Gaussian 16, Revision C.01,
 M. J. Frisch, G. W. Trucks, H. B. Schlegel, G. E. Scuseria, 
 M. A. Robb, J. R. Cheeseman, G. Scalmani, V. Barone, 
 G. A. Petersson, H. Nakatsuji, X. Li, M. Caricato, A. V. Marenich, 
 J. Bloino, B. G. Janesko, R. Gomperts, B. Mennucci, H. P. Hratchian, 
 J. V. Ortiz, A. F. Izmaylov, J. L. Sonnenberg, D. Williams-Young, 
 F. Ding, F. Lipparini, F. Egidi, J. Goings, B. Peng, A. Petrone, 
 T. Henderson, D. Ranasinghe, V. G. Zakrzewski, J. Gao, N. Rega, 
 G. Zheng, W. Liang, M. Hada, M. Ehara, K. Toyota, R. Fukuda, 
 J. Hasegawa, M. Ishida, T. Nakajima, Y. Honda, O. Kitao, H. Nakai, 
 T. Vreven, K. Throssell, J. A. Montgomery, Jr., J. E. Peralta, 
 F. Ogliaro, M. J. Bearpark, J. J. Heyd, E. N. Brothers, K. N. Kudin, 
 V. N. Staroverov, T. A. Keith, R. Kobayashi, J. Normand, 
 K. Raghavachari, A. P. Rendell, J. C. Burant, S. S. Iyengar, 
 J. Tomasi, M. Cossi, J. M. Millam, M. Klene, C. Adamo, R. Cammi, 
 J. W. Ochterski, R. L. Martin, K. Morokuma, O. Farkas, 
 J. B. Foresman, and D. J. Fox, Gaussian, Inc., Wallingford CT, 2019.
 
 ******************************************
 Gaussian 16:  ES64L-G16RevC.01  3-Jul-2019
                 2-Mar-2023 
 ******************************************
 %nproc=16
 Will use up to   16 processors via shared memory.
 %mem=60GB
 -----------------------------------------------------------
 # B3LYP/genecp em=GD3BJ int=fine scrf=(smd,solvent=acetone)
 -----------------------------------------------------------
 1/38=1,172=1/1;
 2/12=2,17=6,18=5,40=1/2;
 3/5=7,11=2,16=1,17=8,25=1,30=1,70=32201,72=19,74=-5,75=-4,124=41/1,2,3;
 4//1;
 5/5=2,38=5,53=19/2;
 6/7=2,8=2,9=2,10=2,28=1/1;
 99/5=1,9=1/99;
 --------
 Template
 --------
 Symbolic Z-matrix:
 Charge =  0 Multiplicity = 1
 Co                   -1.04193  -0.38489  -0.80574 
 N                    -1.5076    1.39044  -0.39336 
 O                    -1.7448    2.39105  -1.29375 
 C                    -1.60552   1.65484   0.8697 
 C                    -1.98361   2.98979   1.41417 
 H                    -2.28615   3.64472   0.60114 
 H                    -1.1312    3.43003   1.92912 
 H                    -2.79672   2.8906    2.12973 
 N                    -0.90918  -0.52782   1.08399 
 O                    -0.57098  -1.61102   1.71424 
 C                    -1.28204   0.54247   1.72772 
 C                    -1.34353   0.63285   3.21885 
 H                    -2.3624    0.82426   3.55278 
 H                    -0.70444   1.43583   3.58049 
 H                    -1.00465  -0.31226   3.63766 
 N                    -0.82226  -2.21253  -1.16313 
 O                    -0.41862  -3.16616  -0.27638 
 C                    -1.1115   -2.56988  -2.37371 
 C                    -1.03288  -3.97395  -2.86774 
 H                    -1.96042  -4.25547  -3.3606 
 H                    -0.83944  -4.64382  -2.03395 
 H                    -0.22382  -4.06423  -3.5908 
 N                    -1.48292  -0.31359  -2.63141 
 O                    -1.81716   0.7727   -3.2485 
 C                    -1.5079   -1.47504  -3.22393 
 C                    -1.89991  -1.66261  -4.65463 
 H                    -2.09008  -0.68446  -5.09148 
 H                    -2.8022   -2.26738  -4.73303 
 H                    -1.10395  -2.15677  -5.20783 
 H                    -1.7899    1.90266  -2.20204 
 H                    -0.41528  -2.67397   0.63601 
 C                     0.86689   0.09772  -1.27651 
 H                     1.15331  -0.62785  -2.03662 
 H                     0.77219   1.09762  -1.69849 
 C                     1.70731   0.04598  -0.09603 
 C                     1.92957   1.18638   0.6105 
 H                     1.5001    2.0979    0.21118 
 C                     2.34638  -1.26913   0.23894 
 H                     2.4287   -1.88521  -0.65254 
 H                     3.3353   -1.12108   0.66499 
 H                     1.73807  -1.81441   0.95857 
 C                     2.71958   1.37984   1.80834 
 C                     2.88035   0.40238   2.79617 
 C                     3.32238   2.62835   2.01523 
 C                     3.63942   0.65621   3.92329 
 H                     2.36986  -0.541     2.70515 
 C                     4.09243   2.87204   3.13422 
 H                     3.19329   3.40273   1.27242 
 C                     4.26077   1.88316   4.09246 
 H                     3.74535  -0.1099    4.67783 
 H                     4.56058   3.83679   3.26631 
 H                     4.86112   2.0729    4.96992 
 
 Stoichiometry    C18H25CoN4O4
 Framework group  C1[X(C18H25CoN4O4)]
 Deg. of freedom   150
 Full point group                 C1      NOp   1
 Largest Abelian subgroup         C1      NOp   1
 Largest concise Abelian subgroup C1      NOp   1
                         Standard orientation:                         
 ---------------------------------------------------------------------
 Center     Atomic      Atomic             Coordinates (Angstroms)
 Number     Number       Type             X           Y           Z
 ---------------------------------------------------------------------
      1         27           0       -1.349767    0.325678    0.223390
      2          7           0       -0.584761    2.028721   -0.007057
      3          8           0       -0.962408    2.963388   -0.930079
      4          6           0        0.386169    2.310165    0.800975
      5          6           0        1.116188    3.609599    0.804911
      6          1           0        0.624990    4.307785    0.132050
      7          1           0        2.141449    3.454631    0.472630
      8          1           0        1.145395    4.024658    1.809834
      9          7           0        0.038088    0.148441    1.508530
     10          8           0        0.241789   -0.915289    2.224000
     11          6           0        0.735284    1.233954    1.694342
     12          6           0        1.821127    1.356369    2.714814
     13          1           0        1.577622    2.123965    3.448125
     14          1           0        2.764727    1.618197    2.240397
     15          1           0        1.927893    0.400793    3.223692
     16          7           0       -2.232320   -1.271062    0.656706
     17          8           0       -1.753290   -2.268170    1.453554
     18          6           0       -3.417314   -1.393993    0.149218
     19          6           0       -4.304640   -2.568519    0.383325
     20          1           0       -5.290785   -2.241319    0.704176
     21          1           0       -3.864845   -3.212982    1.140023
     22          1           0       -4.418730   -3.132749   -0.540895
     23          7           0       -2.890902    0.631200   -0.808202
     24          8           0       -3.081597    1.695149   -1.518265
     25          6           0       -3.808264   -0.287968   -0.688954
     26          6           0       -5.140874   -0.215381   -1.363234
     27          1           0       -5.164953    0.677195   -1.984926
     28          1           0       -5.943694   -0.158189   -0.629593
     29          1           0       -5.303374   -1.093259   -1.985085
     30          1           0       -1.846076    2.591789   -1.312969
     31          1           0       -0.888220   -1.868435    1.861695
     32          6           0       -0.438395   -0.438225   -1.414903
     33          1           0       -1.127529   -1.197177   -1.782779
     34          1           0       -0.389965    0.414580   -2.091084
     35          6           0        0.863201   -0.973567   -1.065952
     36          6           0        1.964019   -0.188635   -1.211456
     37          1           0        1.807580    0.794625   -1.639831
     38          6           0        0.924511   -2.405985   -0.624875
     39          1           0        0.071574   -2.956039   -1.013486
     40          1           0        1.841732   -2.877375   -0.968240
     41          1           0        0.888314   -2.470597    0.461287
     42          6           0        3.350215   -0.497464   -0.929576
     43          6           0        3.758502   -1.366960    0.087456
     44          6           0        4.342826    0.141100   -1.685826
     45          6           0        5.100793   -1.609567    0.311983
     46          1           0        3.025457   -1.815867    0.735519
     47          6           0        5.681160   -0.116274   -1.468757
     48          1           0        4.047308    0.831336   -2.463221
     49          6           0        6.067494   -0.999717   -0.471391
     50          1           0        5.395374   -2.279174    1.107163
     51          1           0        6.429294    0.375495   -2.073573
     52          1           0        7.114472   -1.200526   -0.298574
 ---------------------------------------------------------------------
 Rotational constants (GHZ):           0.3145197           0.1234196           0.1116391
 General basis read from cards:  (5D, 7F)
 ======================================================================================================
                                       Pseudopotential Parameters
 ======================================================================================================
  Center     Atomic      Valence      Angular      Power
  Number     Number     Electrons     Momentum     of R      Exponent        Coefficient   SO-Coeffient
 ======================================================================================================
    1         27           17
                                      D and up 
                                                     1      434.1076104      -10.00000000    0.00000000
                                                     2       78.8402758      -66.72402760    0.00000000
                                                     2       19.6037749      -11.71922430    0.00000000
                                      S - D
                                                     0      151.2307582        3.00000000    0.00000000
                                                     1      169.6790026       20.15531100    0.00000000
                                                     2       64.9909423      413.37622440    0.00000000
                                                     2       12.5076287      133.87277050    0.00000000
                                      P - D
                                                     0       92.7319924        5.00000000    0.00000000
                                                     1      121.1910183        6.18923530    0.00000000
                                                     2       48.6265909      326.32159190    0.00000000
                                                     2       11.9966971       73.87889700    0.00000000
    2          7
                                   No pseudopotential on this center.
    3          8
                                   No pseudopotential on this center.
    4          6
                                   No pseudopotential on this center.
    5          6
                                   No pseudopotential on this center.
    6          1
                                   No pseudopotential on this center.
    7          1
                                   No pseudopotential on this center.
    8          1
                                   No pseudopotential on this center.
    9          7
                                   No pseudopotential on this center.
   10          8
                                   No pseudopotential on this center.
   11          6
                                   No pseudopotential on this center.
   12          6
                                   No pseudopotential on this center.
   13          1
                                   No pseudopotential on this center.
   14          1
                                   No pseudopotential on this center.
   15          1
                                   No pseudopotential on this center.
   16          7
                                   No pseudopotential on this center.
   17          8
                                   No pseudopotential on this center.
   18          6
                                   No pseudopotential on this center.
   19          6
                                   No pseudopotential on this center.
   20          1
                                   No pseudopotential on this center.
   21          1
                                   No pseudopotential on this center.
   22          1
                                   No pseudopotential on this center.
   23          7
                                   No pseudopotential on this center.
   24          8
                                   No pseudopotential on this center.
   25          6
                                   No pseudopotential on this center.
   26          6
                                   No pseudopotential on this center.
   27          1
                                   No pseudopotential on this center.
   28          1
                                   No pseudopotential on this center.
   29          1
                                   No pseudopotential on this center.
   30          1
                                   No pseudopotential on this center.
   31          1
                                   No pseudopotential on this center.
   32          6
                                   No pseudopotential on this center.
   33          1
                                   No pseudopotential on this center.
   34          1
                                   No pseudopotential on this center.
   35          6
                                   No pseudopotential on this center.
   36          6
                                   No pseudopotential on this center.
   37          1
                                   No pseudopotential on this center.
   38          6
                                   No pseudopotential on this center.
   39          1
                                   No pseudopotential on this center.
   40          1
                                   No pseudopotential on this center.
   41          1
                                   No pseudopotential on this center.
   42          6
                                   No pseudopotential on this center.
   43          6
                                   No pseudopotential on this center.
   44          6
                                   No pseudopotential on this center.
   45          6
                                   No pseudopotential on this center.
   46          1
                                   No pseudopotential on this center.
   47          6
                                   No pseudopotential on this center.
   48          1
                                   No pseudopotential on this center.
   49          6
                                   No pseudopotential on this center.
   50          1
                                   No pseudopotential on this center.
   51          1
                                   No pseudopotential on this center.
   52          1
                                   No pseudopotential on this center.
 ======================================================================================================
 There are   464 symmetry adapted cartesian basis functions of A   symmetry.
 There are   436 symmetry adapted basis functions of A   symmetry.
   436 basis functions,   880 primitive gaussians,   464 cartesian basis functions
   105 alpha electrons      105 beta electrons
       nuclear repulsion energy      3004.8717746000 Hartrees.
 NAtoms=   52 NActive=   52 NUniq=   52 SFac= 1.00D+00 NAtFMM=   60 NAOKFM=F Big=F
 Integral buffers will be    131072 words long.
 Raffenetti 2 integral format.
 Two-electron integral symmetry is turned on.
 Nuclear repulsion after empirical dispersion term =     3004.7471699776 Hartrees.
 ------------------------------------------------------------------------------
 Polarizable Continuum Model (PCM)
 =================================
 Model                : PCM.
 Atomic radii         : SMD-Coulomb.
 Polarization charges : Total charges.
 Charge compensation  : None.
 Solution method      : On-the-fly selection.
 Cavity type          : VdW (van der Waals Surface) (Alpha=1.000).
 Cavity algorithm     : GePol (No added spheres)
                        Default sphere list used, NSphG=   52.
                        Lebedev-Laikov grids with approx.  5.0 points / Ang**2.
                        Smoothing algorithm: York/Karplus (Gamma=1.0000).
                        Polarization charges: spherical gaussians, with
                                              point-specific exponents (IZeta= 3).
                        Self-potential: point-specific (ISelfS= 7).
                        Self-field    : sphere-specific E.n sum rule (ISelfD= 2).
 Solvent              : Acetone, Eps=  20.493000 Eps(inf)=   1.846337
 ------------------------------------------------------------------------------
 ------------------------------------------------------------------------------
 Atomic radii for non-electrostatic terms: SMD-CDS.
 ------------------------------------------------------------------------------
 Nuclear repulsion after PCM non-electrostatic terms =     3004.7407305209 Hartrees.
 One-electron integrals computed using PRISM.
   1 Symmetry operations used in ECPInt.
 ECPInt:  NShTT=   13203 NPrTT=   81964 LenC2=   11374 LenP2D=   39393.
 LDataN:  DoStor=T MaxTD1= 4 Len=   56
 NBasis=   436 RedAO= T EigKep=  4.35D-04  NBF=   436
 NBsUse=   436 1.00D-06 EigRej= -1.00D+00 NBFU=   436
 ExpMin= 2.30D-02 ExpMax= 5.48D+03 ExpMxC= 8.25D+02 IAcc=3 IRadAn=         5 AccDes= 0.00D+00
 Harris functional with IExCor=  402 and IRadAn=       5 diagonalized for initial guess.
 HarFok:  IExCor=  402 AccDes= 0.00D+00 IRadAn=         5 IDoV= 1 UseB2=F ITyADJ=14
 ICtDFT=  3500011 ScaDFX=  1.000000  1.000000  1.000000  1.000000
 FoFCou: FMM=F IPFlag=           0 FMFlag=      100000 FMFlg1=           0
         NFxFlg=           0 DoJE=T BraDBF=F KetDBF=T FulRan=T
         wScrn=  0.000000 ICntrl=       500 IOpCl=  0 I1Cent=   200000004 NGrid=           0
         NMat0=    1 NMatS0=      1 NMatT0=    0 NMatD0=    1 NMtDS0=    0 NMtDT0=    0
 Petite list used in FoFCou.
 Requested convergence on RMS density matrix=1.00D-08 within 128 cycles.
 Requested convergence on MAX density matrix=1.00D-06.
 Requested convergence on             energy=1.00D-06.
 No special actions if energy rises.
 Inv3:  Mode=1 IEnd=    40959075.
 Iteration    1 A*A^-1 deviation from unit magnitude is 3.33D-15 for   2418.
 Iteration    1 A*A^-1 deviation from orthogonality  is 2.34D-15 for   1125      9.
 Iteration    1 A^-1*A deviation from unit magnitude is 3.44D-15 for   1099.
 Iteration    1 A^-1*A deviation from orthogonality  is 2.44D-15 for   3673   3490.
 EnCoef did     4 forward-backward iterations
 Error on total polarization charges =  0.04509
 SCF Done:  E(RB3LYP) =  -1365.93347737     A.U. after   20 cycles
            NFock= 20  Conv=0.76D-08     -V/T= 2.0505
 SMD-CDS (non-electrostatic) energy       (kcal/mol) =      -4.04
 (included in total energy above)

 **********************************************************************

            Population analysis using the SCF Density.

 **********************************************************************

 Orbital symmetries:
       Occupied  (A) (A) (A) (A) (A) (A) (A) (A) (A) (A) (A) (A)
                 (A) (A) (A) (A) (A) (A) (A) (A) (A) (A) (A) (A)
                 (A) (A) (A) (A) (A) (A) (A) (A) (A) (A) (A) (A)
                 (A) (A) (A) (A) (A) (A) (A) (A) (A) (A) (A) (A)
                 (A) (A) (A) (A) (A) (A) (A) (A) (A) (A) (A) (A)
                 (A) (A) (A) (A) (A) (A) (A) (A) (A) (A) (A) (A)
                 (A) (A) (A) (A) (A) (A) (A) (A) (A) (A) (A) (A)
                 (A) (A) (A) (A) (A) (A) (A) (A) (A) (A) (A) (A)
                 (A) (A) (A) (A) (A) (A) (A) (A) (A)
       Virtual   (A) (A) (A) (A) (A) (A) (A) (A) (A) (A) (A) (A)
                 (A) (A) (A) (A) (A) (A) (A) (A) (A) (A) (A) (A)
                 (A) (A) (A) (A) (A) (A) (A) (A) (A) (A) (A) (A)
                 (A) (A) (A) (A) (A) (A) (A) (A) (A) (A) (A) (A)
                 (A) (A) (A) (A) (A) (A) (A) (A) (A) (A) (A) (A)
                 (A) (A) (A) (A) (A) (A) (A) (A) (A) (A) (A) (A)
                 (A) (A) (A) (A) (A) (A) (A) (A) (A) (A) (A) (A)
                 (A) (A) (A) (A) (A) (A) (A) (A) (A) (A) (A) (A)
                 (A) (A) (A) (A) (A) (A) (A) (A) (A) (A) (A) (A)
                 (A) (A) (A) (A) (A) (A) (A) (A) (A) (A) (A) (A)
                 (A) (A) (A) (A) (A) (A) (A) (A) (A) (A) (A) (A)
                 (A) (A) (A) (A) (A) (A) (A) (A) (A) (A) (A) (A)
                 (A) (A) (A) (A) (A) (A) (A) (A) (A) (A) (A) (A)
                 (A) (A) (A) (A) (A) (A) (A) (A) (A) (A) (A) (A)
                 (A) (A) (A) (A) (A) (A) (A) (A) (A) (A) (A) (A)
                 (A) (A) (A) (A) (A) (A) (A) (A) (A) (A) (A) (A)
                 (A) (A) (A) (A) (A) (A) (A) (A) (A) (A) (A) (A)
                 (A) (A) (A) (A) (A) (A) (A) (A) (A) (A) (A) (A)
                 (A) (A) (A) (A) (A) (A) (A) (A) (A) (A) (A) (A)
                 (A) (A) (A) (A) (A) (A) (A) (A) (A) (A) (A) (A)
                 (A) (A) (A) (A) (A) (A) (A) (A) (A) (A) (A) (A)
                 (A) (A) (A) (A) (A) (A) (A) (A) (A) (A) (A) (A)
                 (A) (A) (A) (A) (A) (A) (A) (A) (A) (A) (A) (A)
                 (A) (A) (A) (A) (A) (A) (A) (A) (A) (A) (A) (A)
                 (A) (A) (A) (A) (A) (A) (A) (A) (A) (A) (A) (A)
                 (A) (A) (A) (A) (A) (A) (A) (A) (A) (A) (A) (A)
                 (A) (A) (A) (A) (A) (A) (A) (A) (A) (A) (A) (A)
                 (A) (A) (A) (A) (A) (A) (A)
 The electronic state is 1-A.
 Alpha  occ. eigenvalues --  -19.16680 -19.16597 -19.12840 -19.12822 -14.41193
 Alpha  occ. eigenvalues --  -14.40858 -14.40544 -14.40482 -10.23648 -10.23606
 Alpha  occ. eigenvalues --  -10.21320 -10.21192 -10.18646 -10.18530 -10.17606
 Alpha  occ. eigenvalues --  -10.17573 -10.17538 -10.17513 -10.17475 -10.17465
 Alpha  occ. eigenvalues --  -10.17447 -10.17434 -10.17131 -10.16829 -10.16724
 Alpha  occ. eigenvalues --  -10.15429  -3.74516  -2.44554  -2.43732  -2.42677
 Alpha  occ. eigenvalues --   -1.09097  -1.08543  -1.07025  -1.06428  -0.90631
 Alpha  occ. eigenvalues --   -0.89443  -0.85843  -0.81927  -0.81005  -0.80612
 Alpha  occ. eigenvalues --   -0.75349  -0.74665  -0.74257  -0.74207  -0.70647
 Alpha  occ. eigenvalues --   -0.70503  -0.68349  -0.66452  -0.62338  -0.60336
 Alpha  occ. eigenvalues --   -0.60113  -0.58836  -0.54928  -0.53628  -0.52961
 Alpha  occ. eigenvalues --   -0.52119  -0.51385  -0.50908  -0.49421  -0.49082
 Alpha  occ. eigenvalues --   -0.47728  -0.46903  -0.46653  -0.45995  -0.45666
 Alpha  occ. eigenvalues --   -0.44547  -0.43469  -0.42748  -0.42421  -0.42253
 Alpha  occ. eigenvalues --   -0.42066  -0.41954  -0.41426  -0.40883  -0.40592
 Alpha  occ. eigenvalues --   -0.40191  -0.39541  -0.38952  -0.38826  -0.38213
 Alpha  occ. eigenvalues --   -0.38075  -0.37915  -0.37586  -0.37319  -0.36757
 Alpha  occ. eigenvalues --   -0.36422  -0.34729  -0.34626  -0.34315  -0.33452
 Alpha  occ. eigenvalues --   -0.33127  -0.30956  -0.30558  -0.28279  -0.27949
 Alpha  occ. eigenvalues --   -0.27730  -0.26813  -0.26403  -0.25204  -0.25089
 Alpha  occ. eigenvalues --   -0.25018  -0.22471  -0.20362  -0.19783  -0.19372
 Alpha virt. eigenvalues --   -0.09357  -0.03829  -0.03373  -0.00501   0.00202
 Alpha virt. eigenvalues --    0.00435   0.02631   0.02784   0.03244   0.06430
 Alpha virt. eigenvalues --    0.06662   0.07036   0.07800   0.11161   0.12387
 Alpha virt. eigenvalues --    0.12771   0.13350   0.14391   0.14902   0.15096
 Alpha virt. eigenvalues --    0.15477   0.15784   0.16410   0.16884   0.17209
 Alpha virt. eigenvalues --    0.17448   0.17770   0.18173   0.18429   0.18734
 Alpha virt. eigenvalues --    0.19248   0.19747   0.20111   0.20241   0.20392
 Alpha virt. eigenvalues --    0.21978   0.23007   0.23296   0.24068   0.24756
 Alpha virt. eigenvalues --    0.24948   0.25134   0.26084   0.26553   0.26945
 Alpha virt. eigenvalues --    0.27675   0.27873   0.28769   0.29772   0.30131
 Alpha virt. eigenvalues --    0.30429   0.31754   0.32377   0.34194   0.34483
 Alpha virt. eigenvalues --    0.35362   0.35944   0.36643   0.40084   0.41256
 Alpha virt. eigenvalues --    0.42004   0.42669   0.43059   0.44691   0.46671
 Alpha virt. eigenvalues --    0.48773   0.49608   0.50901   0.51613   0.52906
 Alpha virt. eigenvalues --    0.53711   0.54126   0.55377   0.55576   0.56094
 Alpha virt. eigenvalues --    0.56171   0.56980   0.57285   0.57924   0.58469
 Alpha virt. eigenvalues --    0.59138   0.59763   0.60095   0.60444   0.60794
 Alpha virt. eigenvalues --    0.61353   0.61831   0.62737   0.63271   0.63783
 Alpha virt. eigenvalues --    0.63849   0.65422   0.65746   0.66483   0.67538
 Alpha virt. eigenvalues --    0.68805   0.69090   0.69409   0.69573   0.70227
 Alpha virt. eigenvalues --    0.70957   0.71767   0.72253   0.73679   0.74930
 Alpha virt. eigenvalues --    0.75451   0.75573   0.76275   0.76727   0.77970
 Alpha virt. eigenvalues --    0.79682   0.80725   0.82202   0.82512   0.83574
 Alpha virt. eigenvalues --    0.83727   0.84199   0.84811   0.85017   0.85426
 Alpha virt. eigenvalues --    0.85810   0.86462   0.86761   0.87164   0.87809
 Alpha virt. eigenvalues --    0.88239   0.89132   0.89687   0.89975   0.90356
 Alpha virt. eigenvalues --    0.90929   0.91282   0.91785   0.92164   0.92999
 Alpha virt. eigenvalues --    0.93392   0.93634   0.94416   0.94647   0.95576
 Alpha virt. eigenvalues --    0.95748   0.96542   0.97006   0.97762   0.98185
 Alpha virt. eigenvalues --    0.99310   1.00730   1.01561   1.01920   1.02659
 Alpha virt. eigenvalues --    1.03032   1.03498   1.04540   1.05359   1.05561
 Alpha virt. eigenvalues --    1.06182   1.07885   1.09420   1.10147   1.11133
 Alpha virt. eigenvalues --    1.12060   1.12840   1.14036   1.14739   1.16013
 Alpha virt. eigenvalues --    1.16662   1.18892   1.19468   1.20541   1.21745
 Alpha virt. eigenvalues --    1.22170   1.24119   1.24646   1.26066   1.26927
 Alpha virt. eigenvalues --    1.28467   1.28878   1.30022   1.30154   1.31641
 Alpha virt. eigenvalues --    1.33195   1.34529   1.35108   1.35471   1.36370
 Alpha virt. eigenvalues --    1.36887   1.37985   1.38542   1.38938   1.39379
 Alpha virt. eigenvalues --    1.39948   1.40800   1.42272   1.43771   1.44197
 Alpha virt. eigenvalues --    1.44465   1.45700   1.46551   1.47273   1.49876
 Alpha virt. eigenvalues --    1.50056   1.50745   1.51718   1.52379   1.53611
 Alpha virt. eigenvalues --    1.56725   1.58099   1.61025   1.62774   1.63113
 Alpha virt. eigenvalues --    1.65635   1.67237   1.71481   1.73972   1.74737
 Alpha virt. eigenvalues --    1.75396   1.76060   1.76711   1.77951   1.78275
 Alpha virt. eigenvalues --    1.79162   1.79623   1.80209   1.81019   1.81123
 Alpha virt. eigenvalues --    1.82234   1.82595   1.82814   1.83889   1.85764
 Alpha virt. eigenvalues --    1.87299   1.88260   1.89010   1.89883   1.90386
 Alpha virt. eigenvalues --    1.91419   1.91993   1.93029   1.94162   1.95042
 Alpha virt. eigenvalues --    1.96135   1.97346   1.98778   1.99119   1.99933
 Alpha virt. eigenvalues --    2.00274   2.00914   2.02286   2.03134   2.05611
 Alpha virt. eigenvalues --    2.06495   2.08953   2.10575   2.11572   2.12608
 Alpha virt. eigenvalues --    2.12834   2.14241   2.14665   2.14856   2.15848
 Alpha virt. eigenvalues --    2.16471   2.17788   2.18696   2.19235   2.20500
 Alpha virt. eigenvalues --    2.22753   2.23891   2.24201   2.27685   2.28156
 Alpha virt. eigenvalues --    2.28276   2.29344   2.30288   2.30699   2.32025
 Alpha virt. eigenvalues --    2.32895   2.33185   2.33379   2.33885   2.34172
 Alpha virt. eigenvalues --    2.34392   2.34970   2.36484   2.37377   2.38117
 Alpha virt. eigenvalues --    2.41013   2.44472   2.46382   2.48756   2.51344
 Alpha virt. eigenvalues --    2.51828   2.53072   2.53614   2.54394   2.55405
 Alpha virt. eigenvalues --    2.56505   2.57217   2.58401   2.59125   2.60588
 Alpha virt. eigenvalues --    2.63747   2.64362   2.65107   2.65910   2.66438
 Alpha virt. eigenvalues --    2.67692   2.67936   2.71273   2.74790   2.75927
 Alpha virt. eigenvalues --    2.76238   2.77307   2.78432   2.81922   2.85186
 Alpha virt. eigenvalues --    2.88230   2.90803   2.91241   2.93506   2.96376
 Alpha virt. eigenvalues --    3.02842   3.04732   3.06491   3.08620   3.10206
 Alpha virt. eigenvalues --    3.11164   3.21155   3.29753   3.32571   3.46418
 Alpha virt. eigenvalues --   21.63111
          Condensed to atoms (all electrons):
 Mulliken charges:
               1
     1  Co   0.328645
     2  N   -0.172698
     3  O   -0.572040
     4  C    0.327057
     5  C   -0.547249
     6  H    0.199724
     7  H    0.204824
     8  H    0.199360
     9  N   -0.088111
    10  O   -0.550794
    11  C    0.275436
    12  C   -0.549150
    13  H    0.187365
    14  H    0.187086
    15  H    0.189959
    16  N   -0.169193
    17  O   -0.571914
    18  C    0.323462
    19  C   -0.546875
    20  H    0.199325
    21  H    0.200666
    22  H    0.204710
    23  N   -0.063649
    24  O   -0.554953
    25  C    0.268445
    26  C   -0.546873
    27  H    0.190377
    28  H    0.189167
    29  H    0.186730
    30  H    0.469953
    31  H    0.473943
    32  C   -0.398923
    33  H    0.184302
    34  H    0.190542
    35  C    0.240313
    36  C   -0.266802
    37  H    0.153872
    38  C   -0.550359
    39  H    0.165300
    40  H    0.164057
    41  H    0.187070
    42  C    0.149628
    43  C   -0.201543
    44  C   -0.204245
    45  C   -0.158118
    46  H    0.163561
    47  C   -0.154194
    48  H    0.153036
    49  C   -0.151291
    50  H    0.153798
    51  H    0.153856
    52  H    0.153406
 Sum of Mulliken charges =  -0.00000
 Mulliken charges with hydrogens summed into heavy atoms:
               1
     1  Co   0.328645
     2  N   -0.172698
     3  O   -0.102088
     4  C    0.327057
     5  C    0.056659
     9  N   -0.088111
    10  O   -0.550794
    11  C    0.275436
    12  C    0.015260
    16  N   -0.169193
    17  O   -0.097971
    18  C    0.323462
    19  C    0.057826
    23  N   -0.063649
    24  O   -0.554953
    25  C    0.268445
    26  C    0.019401
    32  C   -0.024079
    35  C    0.240313
    36  C   -0.112930
    38  C   -0.033932
    42  C    0.149628
    43  C   -0.037983
    44  C   -0.051209
    45  C   -0.004319
    47  C   -0.000338
    49  C    0.002114
 Electronic spatial extent (au):  <R**2>=          10335.3187
 Charge=              0.0000 electrons
 Dipole moment (field-independent basis, Debye):
    X=             -0.1270    Y=              0.1057    Z=              0.7978  Tot=              0.8147
 Quadrupole moment (field-independent basis, Debye-Ang):
   XX=           -138.5089   YY=           -163.6155   ZZ=           -169.4211
   XY=             18.4203   XZ=             -0.5319   YZ=             11.4759
 Traceless Quadrupole moment (field-independent basis, Debye-Ang):
   XX=             18.6729   YY=             -6.4337   ZZ=            -12.2392
   XY=             18.4203   XZ=             -0.5319   YZ=             11.4759
 Octapole moment (field-independent basis, Debye-Ang**2):
  XXX=            -93.9190  YYY=             23.3126  ZZZ=             13.5454  XYY=             -7.2793
  XXY=            -50.9142  XXZ=              8.4171  XZZ=             -9.8283  YZZ=             23.0236
  YYZ=             25.8600  XYZ=            -30.1415
 Hexadecapole moment (field-independent basis, Debye-Ang**3):
 XXXX=          -8089.7418 YYYY=          -2764.5428 ZZZZ=          -1705.9034 XXXY=            191.0594
 XXXZ=            -52.6975 YYYX=             90.6121 YYYZ=             37.0216 ZZZX=             15.1669
 ZZZY=             -3.7327 XXYY=          -1961.2573 XXZZ=          -1811.8184 YYZZ=           -727.9550
 XXYZ=            -39.4128 YYXZ=             49.5113 ZZXY=             52.7176
 N-N= 3.004740730521D+03 E-N=-9.200902128951D+03  KE= 1.300234551084D+03
 Unable to Open any file for archive entry.
 1\1\GINC-N204\SP\RB3LYP\GenECP\C18H25Co1N4O4\CJD\02-Mar-2023\0\\# B3LY
 P/genecp em=GD3BJ int=fine scrf=(smd,solvent=acetone)\\Template\\0,1\C
 o,0,-1.0419340178,-0.3848936715,-0.8057415031\N,0,-1.5076004216,1.3904
 35249,-0.3933635157\O,0,-1.7448001134,2.3910536322,-1.2937468799\C,0,-
 1.6055188909,1.6548444001,0.8697003817\C,0,-1.9836091873,2.9897858994,
 1.4141727668\H,0,-2.2861477843,3.6447191503,0.6011449748\H,0,-1.131199
 8031,3.4300273215,1.9291194586\H,0,-2.796715128,2.8905986242,2.1297281
 64\N,0,-0.9091764545,-0.5278217145,1.0839902272\O,0,-0.5709834608,-1.6
 110233262,1.7142383046\C,0,-1.2820361643,0.542472004,1.7277228857\C,0,
 -1.3435308533,0.6328479224,3.2188482307\H,0,-2.362401286,0.8242588306,
 3.5527753743\H,0,-0.7044394576,1.4358319134,3.5804910466\H,0,-1.004648
 7067,-0.3122639648,3.637662607\N,0,-0.8222621675,-2.2125318385,-1.1631
 289531\O,0,-0.4186195603,-3.1661583455,-0.2763769739\C,0,-1.111495332,
 -2.5698754558,-2.373714748\C,0,-1.0328821115,-3.9739504921,-2.86773675
 85\H,0,-1.9604168267,-4.2554676605,-3.3605991631\H,0,-0.8394447647,-4.
 6438202084,-2.0339498093\H,0,-0.2238217113,-4.0642295857,-3.5908031519
 \N,0,-1.4829193145,-0.3135941331,-2.6314119142\O,0,-1.8171648946,0.772
 6970286,-3.2484961282\C,0,-1.5078962023,-1.4750353645,-3.2239252397\C,
 0,-1.8999104172,-1.6626108283,-4.6546285447\H,0,-2.0900761152,-0.68446
 24251,-5.0914765827\H,0,-2.8022012755,-2.2673787375,-4.7330288288\H,0,
 -1.1039504318,-2.156769557,-5.20782823\H,0,-1.7898994448,1.9026562012,
 -2.2020390045\H,0,-0.4152809987,-2.6739678918,0.6360099004\C,0,0.86689
 10478,0.0977178545,-1.2765093716\H,0,1.153311571,-0.6278454248,-2.0366
 192223\H,0,0.7721937319,1.097620667,-1.6984935665\C,0,1.7073055108,0.0
 459826661,-0.0960280309\C,0,1.9295697254,1.1863785645,0.6105021785\H,0
 ,1.5000987179,2.0979028188,0.2111810864\C,0,2.3463756375,-1.2691272256
 ,0.2389430834\H,0,2.4287031385,-1.8852085162,-0.6525424508\H,0,3.33529
 80994,-1.1210844977,0.6649920158\H,0,1.7380718623,-1.8144105809,0.9585
 719315\C,0,2.7195797128,1.379841071,1.8083444581\C,0,2.8803518151,0.40
 2381979,2.7961716742\C,0,3.3223815712,2.6283532158,2.0152298341\C,0,3.
 6394195175,0.6562057549,3.9232945524\H,0,2.3698629066,-0.5410021781,2.
 7051479429\C,0,4.0924281167,2.8720423301,3.1342204663\H,0,3.1932888982
 ,3.4027342355,1.2724182052\C,0,4.2607717463,1.8831562441,4.0924627759\
 H,0,3.7453450255,-0.1098993292,4.677830929\H,0,4.5605772307,3.83678738
 41,3.2663068176\H,0,4.8611238834,2.0728969462,4.9699196413\\Version=ES
 64L-G16RevC.01\State=1-A\HF=-1365.9334774\RMSD=7.571e-09\Dipole=-0.233
 8066,-0.1254792,0.1797906\Quadrupole=-3.436785,0.5255132,2.9112718,4.3
 336591,-0.2331776,19.5088885\PG=C01 [X(C18H25Co1N4O4)]\\@
 The archive entry for this job was punched.


 Other things may change us, but we start and end with family.
 -- Anthony Brandt
 Job cpu time:       0 days  0 hours 22 minutes 41.7 seconds.
 Elapsed time:       0 days  0 hours  1 minutes 27.8 seconds.
 File lengths (MBytes):  RWF=    332 Int=      0 D2E=      0 Chk=     14 Scr=      1
 Normal termination of Gaussian 16 at Thu Mar  2 08:12:06 2023.
