 Entering Gaussian System, Link 0=g16
 Initial command:
 /opt/local/g16/l1.exe "/data/tmp/cjd/Gau-4658.inp" -scrdir="/data/tmp/cjd/"
 Entering Link 1 = /opt/local/g16/l1.exe PID=      4659.
  
 Copyright (c) 1988-2019, Gaussian, Inc.  All Rights Reserved.
  
 This is part of the Gaussian(R) 16 program.  It is based on
 the Gaussian(R) 09 system (copyright 2009, Gaussian, Inc.),
 the Gaussian(R) 03 system (copyright 2003, Gaussian, Inc.),
 the Gaussian(R) 98 system (copyright 1998, Gaussian, Inc.),
 the Gaussian(R) 94 system (copyright 1995, Gaussian, Inc.),
 the Gaussian 92(TM) system (copyright 1992, Gaussian, Inc.),
 the Gaussian 90(TM) system (copyright 1990, Gaussian, Inc.),
 the Gaussian 88(TM) system (copyright 1988, Gaussian, Inc.),
 the Gaussian 86(TM) system (copyright 1986, Carnegie Mellon
 University), and the Gaussian 82(TM) system (copyright 1983,
 Carnegie Mellon University). Gaussian is a federally registered
 trademark of Gaussian, Inc.
  
 This software contains proprietary and confidential information,
 including trade secrets, belonging to Gaussian, Inc.
  
 This software is provided under written license and may be
 used, copied, transmitted, or stored only in accord with that
 written license.
  
 The following legend is applicable only to US Government
 contracts under FAR:
  
                    RESTRICTED RIGHTS LEGEND
  
 Use, reproduction and disclosure by the US Government is
 subject to restrictions as set forth in subparagraphs (a)
 and (c) of the Commercial Computer Software - Restricted
 Rights clause in FAR 52.227-19.
  
 Gaussian, Inc.
 340 Quinnipiac St., Bldg. 40, Wallingford CT 06492
  
  
 ---------------------------------------------------------------
 Warning -- This program may not be used in any manner that
 competes with the business of Gaussian, Inc. or will provide
 assistance to any competitor of Gaussian, Inc.  The licensee
 of this program is prohibited from giving any competitor of
 Gaussian, Inc. access to this program.  By using this program,
 the user acknowledges that Gaussian, Inc. is engaged in the
 business of creating and licensing software in the field of
 computational chemistry and represents and warrants to the
 licensee that it is not a competitor of Gaussian, Inc. and that
 it will not use this program in any manner prohibited above.
 ---------------------------------------------------------------
  

 Cite this work as:
 Gaussian 16, Revision C.01,
 M. J. Frisch, G. W. Trucks, H. B. Schlegel, G. E. Scuseria, 
 M. A. Robb, J. R. Cheeseman, G. Scalmani, V. Barone, 
 G. A. Petersson, H. Nakatsuji, X. Li, M. Caricato, A. V. Marenich, 
 J. Bloino, B. G. Janesko, R. Gomperts, B. Mennucci, H. P. Hratchian, 
 J. V. Ortiz, A. F. Izmaylov, J. L. Sonnenberg, D. Williams-Young, 
 F. Ding, F. Lipparini, F. Egidi, J. Goings, B. Peng, A. Petrone, 
 T. Henderson, D. Ranasinghe, V. G. Zakrzewski, J. Gao, N. Rega, 
 G. Zheng, W. Liang, M. Hada, M. Ehara, K. Toyota, R. Fukuda, 
 J. Hasegawa, M. Ishida, T. Nakajima, Y. Honda, O. Kitao, H. Nakai, 
 T. Vreven, K. Throssell, J. A. Montgomery, Jr., J. E. Peralta, 
 F. Ogliaro, M. J. Bearpark, J. J. Heyd, E. N. Brothers, K. N. Kudin, 
 V. N. Staroverov, T. A. Keith, R. Kobayashi, J. Normand, 
 K. Raghavachari, A. P. Rendell, J. C. Burant, S. S. Iyengar, 
 J. Tomasi, M. Cossi, J. M. Millam, M. Klene, C. Adamo, R. Cammi, 
 J. W. Ochterski, R. L. Martin, K. Morokuma, O. Farkas, 
 J. B. Foresman, and D. J. Fox, Gaussian, Inc., Wallingford CT, 2019.
 
 ******************************************
 Gaussian 16:  ES64L-G16RevC.01  3-Jul-2019
                 2-Mar-2023 
 ******************************************
 %nproc=16
 Will use up to   16 processors via shared memory.
 %mem=60GB
 -----------------------------------------------------------
 # B3LYP/genecp em=GD3BJ int=fine scrf=(smd,solvent=acetone)
 -----------------------------------------------------------
 1/38=1,172=1/1;
 2/12=2,17=6,18=5,40=1/2;
 3/5=7,11=2,16=1,17=8,25=1,30=1,70=32201,72=19,74=-5,75=-4,124=41/1,2,3;
 4//1;
 5/5=2,38=5,53=19/2;
 6/7=2,8=2,9=2,10=2,28=1/1;
 99/5=1,9=1/99;
 --------
 Template
 --------
 Symbolic Z-matrix:
 Charge =  0 Multiplicity = 1
 Co                   -1.02347  -0.50893  -0.78049 
 N                    -1.03058   1.33698  -0.4246 
 O                    -0.90268   2.337    -1.3466 
 C                    -1.20385   1.65383   0.81779 
 C                    -1.30412   3.05426   1.31832 
 H                    -2.28564   3.22345   1.75817 
 H                    -1.15508   3.74944   0.49641 
 H                    -0.55583   3.22729   2.08849 
 N                    -1.15587  -0.62932   1.10239 
 O                    -1.22332  -1.74561   1.75938 
 C                    -1.2845    0.51984   1.70379 
 C                    -1.47175   0.66159   3.18005 
 H                    -1.54314  -0.33246   3.61666 
 H                    -2.37759   1.22069   3.40671 
 H                    -0.62322   1.1831    3.62034 
 N                    -1.27181  -2.3395   -1.11723 
 O                    -1.22036  -3.34292  -0.19422 
 C                    -1.5263   -2.63801  -2.3512 
 C                    -1.78902  -4.0228   -2.83514 
 H                    -0.95202  -4.36416  -3.44232 
 H                    -2.68576  -4.04645  -3.44961 
 H                    -1.90397  -4.69091  -1.9854 
 N                    -1.21484  -0.37774  -2.6494 
 O                    -1.14756   0.73712  -3.30315 
 C                    -1.50776  -1.50251  -3.24017 
 C                    -1.77811  -1.61806  -4.70621 
 H                    -1.63419  -0.64029  -5.16135 
 H                    -2.80064  -1.94626  -4.88726 
 H                    -1.09898  -2.33344  -5.16523 
 H                    -0.95403   1.84841  -2.25461 
 H                    -1.20594  -2.84257   0.71843 
 C                     0.99518  -0.57822  -0.99191 
 H                     1.17635  -1.59013  -1.35319 
 H                     1.1868    0.16631  -1.76408 
 C                     1.70285  -0.29951   0.24439 
 C                     2.08685   0.97703   0.51033 
 H                     1.76619   1.7305   -0.19961 
 C                     1.98061  -1.46932   1.14213 
 H                     2.96224  -1.88708   0.92057 
 H                     1.94893  -1.18138   2.18936 
 H                     1.24274  -2.24877   0.97641 
 C                     2.81865   1.51987   1.63484 
 C                     3.73144   0.80056   2.4134 
 C                     2.62222   2.87367   1.94473 
 C                     4.38014   1.40012   3.47735 
 H                     3.96902  -0.21865   2.16294 
 C                     3.25953   3.46461   3.01604 
 H                     1.94647   3.45586   1.33475 
 C                     4.13877   2.72678   3.79511 
 H                     5.08488   0.82697   4.06239 
 H                     3.07962   4.50562   3.24276 
 H                     4.64247   3.18731   4.632 
 
 Stoichiometry    C18H25CoN4O4
 Framework group  C1[X(C18H25CoN4O4)]
 Deg. of freedom   150
 Full point group                 C1      NOp   1
 Largest Abelian subgroup         C1      NOp   1
 Largest concise Abelian subgroup C1      NOp   1
                         Standard orientation:                         
 ---------------------------------------------------------------------
 Center     Atomic      Atomic             Coordinates (Angstroms)
 Number     Number       Type             X           Y           Z
 ---------------------------------------------------------------------
      1         27           0       -1.371395    0.232856    0.276866
      2          7           0       -0.212770    1.712010    0.338368
      3          8           0       -0.257484    2.806498   -0.478072
      4          6           0        0.680769    1.668400    1.273055
      5          6           0        1.661620    2.757382    1.544814
      6          1           0        1.500361    3.163933    2.541897
      7          1           0        1.542701    3.550121    0.811024
      8          1           0        2.674520    2.363403    1.501769
      9          7           0       -0.246461   -0.402321    1.658298
     10          8           0       -0.403814   -1.538879    2.263069
     11          6           0        0.660310    0.450777    2.044031
     12          6           0        1.614700    0.189610    3.164491
     13          1           0        1.369169   -0.771761    3.610971
     14          1           0        1.547958    0.966957    3.923288
     15          1           0        2.636903    0.157137    2.790486
     16          7           0       -2.650062   -1.135527    0.413302
     17          8           0       -2.507711   -2.305951    1.099809
     18          6           0       -3.764087   -0.905388   -0.205189
     19          6           0       -4.925689   -1.838946   -0.202261
     20          1           0       -5.041978   -2.282911   -1.189749
     21          1           0       -5.841380   -1.304789    0.039505
     22          1           0       -4.755854   -2.630881    0.522755
     23          7           0       -2.659683    1.004197   -0.859791
     24          8           0       -2.500974    2.138595   -1.462113
     25          6           0       -3.779017    0.339626   -0.932982
     26          6           0       -4.965175    0.805625   -1.715023
     27          1           0       -4.700278    1.729359   -2.225357
     28          1           0       -5.813031    0.994222   -1.058046
     29          1           0       -5.256674    0.058045   -2.449757
     30          1           0       -1.137193    2.689558   -1.005576
     31          1           0       -1.639324   -2.165369    1.656252
     32          6           0       -0.436954   -0.579207   -1.333040
     33          1           0       -1.085623   -1.410258   -1.608526
     34          1           0       -0.474493    0.223240   -2.069230
     35          6           0        0.917998   -1.010774   -1.041890
     36          6           0        1.946426   -0.151667   -1.269922
     37          1           0        1.673149    0.846757   -1.590892
     38          6           0        1.084592   -2.408116   -0.521089
     39          1           0        1.267238   -3.096268   -1.345900
     40          1           0        1.911137   -2.473290    0.181177
     41          1           0        0.177492   -2.727604   -0.016547
     42          6           0        3.372286   -0.331192   -1.098323
     43          6           0        4.034242   -1.561585   -1.166731
     44          6           0        4.149495    0.815935   -0.880558
     45          6           0        5.402334   -1.639849   -0.981038
     46          1           0        3.486984   -2.456226   -1.407758
     47          6           0        5.511918    0.732597   -0.680723
     48          1           0        3.661866    1.779967   -0.857595
     49          6           0        6.146491   -0.500274   -0.722441
     50          1           0        5.893767   -2.600096   -1.042932
     51          1           0        6.085955    1.629985   -0.500025
     52          1           0        7.213452   -0.568691   -0.570488
 ---------------------------------------------------------------------
 Rotational constants (GHZ):           0.3324501           0.1172435           0.1120376
 General basis read from cards:  (5D, 7F)
 ======================================================================================================
                                       Pseudopotential Parameters
 ======================================================================================================
  Center     Atomic      Valence      Angular      Power
  Number     Number     Electrons     Momentum     of R      Exponent        Coefficient   SO-Coeffient
 ======================================================================================================
    1         27           17
                                      D and up 
                                                     1      434.1076104      -10.00000000    0.00000000
                                                     2       78.8402758      -66.72402760    0.00000000
                                                     2       19.6037749      -11.71922430    0.00000000
                                      S - D
                                                     0      151.2307582        3.00000000    0.00000000
                                                     1      169.6790026       20.15531100    0.00000000
                                                     2       64.9909423      413.37622440    0.00000000
                                                     2       12.5076287      133.87277050    0.00000000
                                      P - D
                                                     0       92.7319924        5.00000000    0.00000000
                                                     1      121.1910183        6.18923530    0.00000000
                                                     2       48.6265909      326.32159190    0.00000000
                                                     2       11.9966971       73.87889700    0.00000000
    2          7
                                   No pseudopotential on this center.
    3          8
                                   No pseudopotential on this center.
    4          6
                                   No pseudopotential on this center.
    5          6
                                   No pseudopotential on this center.
    6          1
                                   No pseudopotential on this center.
    7          1
                                   No pseudopotential on this center.
    8          1
                                   No pseudopotential on this center.
    9          7
                                   No pseudopotential on this center.
   10          8
                                   No pseudopotential on this center.
   11          6
                                   No pseudopotential on this center.
   12          6
                                   No pseudopotential on this center.
   13          1
                                   No pseudopotential on this center.
   14          1
                                   No pseudopotential on this center.
   15          1
                                   No pseudopotential on this center.
   16          7
                                   No pseudopotential on this center.
   17          8
                                   No pseudopotential on this center.
   18          6
                                   No pseudopotential on this center.
   19          6
                                   No pseudopotential on this center.
   20          1
                                   No pseudopotential on this center.
   21          1
                                   No pseudopotential on this center.
   22          1
                                   No pseudopotential on this center.
   23          7
                                   No pseudopotential on this center.
   24          8
                                   No pseudopotential on this center.
   25          6
                                   No pseudopotential on this center.
   26          6
                                   No pseudopotential on this center.
   27          1
                                   No pseudopotential on this center.
   28          1
                                   No pseudopotential on this center.
   29          1
                                   No pseudopotential on this center.
   30          1
                                   No pseudopotential on this center.
   31          1
                                   No pseudopotential on this center.
   32          6
                                   No pseudopotential on this center.
   33          1
                                   No pseudopotential on this center.
   34          1
                                   No pseudopotential on this center.
   35          6
                                   No pseudopotential on this center.
   36          6
                                   No pseudopotential on this center.
   37          1
                                   No pseudopotential on this center.
   38          6
                                   No pseudopotential on this center.
   39          1
                                   No pseudopotential on this center.
   40          1
                                   No pseudopotential on this center.
   41          1
                                   No pseudopotential on this center.
   42          6
                                   No pseudopotential on this center.
   43          6
                                   No pseudopotential on this center.
   44          6
                                   No pseudopotential on this center.
   45          6
                                   No pseudopotential on this center.
   46          1
                                   No pseudopotential on this center.
   47          6
                                   No pseudopotential on this center.
   48          1
                                   No pseudopotential on this center.
   49          6
                                   No pseudopotential on this center.
   50          1
                                   No pseudopotential on this center.
   51          1
                                   No pseudopotential on this center.
   52          1
                                   No pseudopotential on this center.
 ======================================================================================================
 There are   464 symmetry adapted cartesian basis functions of A   symmetry.
 There are   436 symmetry adapted basis functions of A   symmetry.
   436 basis functions,   880 primitive gaussians,   464 cartesian basis functions
   105 alpha electrons      105 beta electrons
       nuclear repulsion energy      3000.5589952572 Hartrees.
 NAtoms=   52 NActive=   52 NUniq=   52 SFac= 1.00D+00 NAtFMM=   60 NAOKFM=F Big=F
 Integral buffers will be    131072 words long.
 Raffenetti 2 integral format.
 Two-electron integral symmetry is turned on.
 Nuclear repulsion after empirical dispersion term =     3000.4340048053 Hartrees.
 ------------------------------------------------------------------------------
 Polarizable Continuum Model (PCM)
 =================================
 Model                : PCM.
 Atomic radii         : SMD-Coulomb.
 Polarization charges : Total charges.
 Charge compensation  : None.
 Solution method      : On-the-fly selection.
 Cavity type          : VdW (van der Waals Surface) (Alpha=1.000).
 Cavity algorithm     : GePol (No added spheres)
                        Default sphere list used, NSphG=   52.
                        Lebedev-Laikov grids with approx.  5.0 points / Ang**2.
                        Smoothing algorithm: York/Karplus (Gamma=1.0000).
                        Polarization charges: spherical gaussians, with
                                              point-specific exponents (IZeta= 3).
                        Self-potential: point-specific (ISelfS= 7).
                        Self-field    : sphere-specific E.n sum rule (ISelfD= 2).
 Solvent              : Acetone, Eps=  20.493000 Eps(inf)=   1.846337
 ------------------------------------------------------------------------------
 ------------------------------------------------------------------------------
 Atomic radii for non-electrostatic terms: SMD-CDS.
 ------------------------------------------------------------------------------
 Nuclear repulsion after PCM non-electrostatic terms =     3000.4274767069 Hartrees.
 One-electron integrals computed using PRISM.
   1 Symmetry operations used in ECPInt.
 ECPInt:  NShTT=   13203 NPrTT=   81964 LenC2=   11349 LenP2D=   39312.
 LDataN:  DoStor=T MaxTD1= 4 Len=   56
 NBasis=   436 RedAO= T EigKep=  4.32D-04  NBF=   436
 NBsUse=   436 1.00D-06 EigRej= -1.00D+00 NBFU=   436
 ExpMin= 2.30D-02 ExpMax= 5.48D+03 ExpMxC= 8.25D+02 IAcc=3 IRadAn=         5 AccDes= 0.00D+00
 Harris functional with IExCor=  402 and IRadAn=       5 diagonalized for initial guess.
 HarFok:  IExCor=  402 AccDes= 0.00D+00 IRadAn=         5 IDoV= 1 UseB2=F ITyADJ=14
 ICtDFT=  3500011 ScaDFX=  1.000000  1.000000  1.000000  1.000000
 FoFCou: FMM=F IPFlag=           0 FMFlag=      100000 FMFlg1=           0
         NFxFlg=           0 DoJE=T BraDBF=F KetDBF=T FulRan=T
         wScrn=  0.000000 ICntrl=       500 IOpCl=  0 I1Cent=   200000004 NGrid=           0
         NMat0=    1 NMatS0=      1 NMatT0=    0 NMatD0=    1 NMtDS0=    0 NMtDT0=    0
 Petite list used in FoFCou.
 Requested convergence on RMS density matrix=1.00D-08 within 128 cycles.
 Requested convergence on MAX density matrix=1.00D-06.
 Requested convergence on             energy=1.00D-06.
 No special actions if energy rises.
 Inv3:  Mode=1 IEnd=    41092203.
 Iteration    1 A*A^-1 deviation from unit magnitude is 2.89D-15 for   3186.
 Iteration    1 A*A^-1 deviation from orthogonality  is 3.22D-15 for    406    358.
 Iteration    1 A^-1*A deviation from unit magnitude is 2.78D-15 for   3303.
 Iteration    1 A^-1*A deviation from orthogonality  is 6.97D-14 for   3384   3351.
 EnCoef did     5 forward-backward iterations
 Restarting incremental Fock formation.
 Error on total polarization charges =  0.04447
 SCF Done:  E(RB3LYP) =  -1365.93330004     A.U. after   21 cycles
            NFock= 21  Conv=0.41D-08     -V/T= 2.0505
 SMD-CDS (non-electrostatic) energy       (kcal/mol) =      -4.10
 (included in total energy above)

 **********************************************************************

            Population analysis using the SCF Density.

 **********************************************************************

 Orbital symmetries:
       Occupied  (A) (A) (A) (A) (A) (A) (A) (A) (A) (A) (A) (A)
                 (A) (A) (A) (A) (A) (A) (A) (A) (A) (A) (A) (A)
                 (A) (A) (A) (A) (A) (A) (A) (A) (A) (A) (A) (A)
                 (A) (A) (A) (A) (A) (A) (A) (A) (A) (A) (A) (A)
                 (A) (A) (A) (A) (A) (A) (A) (A) (A) (A) (A) (A)
                 (A) (A) (A) (A) (A) (A) (A) (A) (A) (A) (A) (A)
                 (A) (A) (A) (A) (A) (A) (A) (A) (A) (A) (A) (A)
                 (A) (A) (A) (A) (A) (A) (A) (A) (A) (A) (A) (A)
                 (A) (A) (A) (A) (A) (A) (A) (A) (A)
       Virtual   (A) (A) (A) (A) (A) (A) (A) (A) (A) (A) (A) (A)
                 (A) (A) (A) (A) (A) (A) (A) (A) (A) (A) (A) (A)
                 (A) (A) (A) (A) (A) (A) (A) (A) (A) (A) (A) (A)
                 (A) (A) (A) (A) (A) (A) (A) (A) (A) (A) (A) (A)
                 (A) (A) (A) (A) (A) (A) (A) (A) (A) (A) (A) (A)
                 (A) (A) (A) (A) (A) (A) (A) (A) (A) (A) (A) (A)
                 (A) (A) (A) (A) (A) (A) (A) (A) (A) (A) (A) (A)
                 (A) (A) (A) (A) (A) (A) (A) (A) (A) (A) (A) (A)
                 (A) (A) (A) (A) (A) (A) (A) (A) (A) (A) (A) (A)
                 (A) (A) (A) (A) (A) (A) (A) (A) (A) (A) (A) (A)
                 (A) (A) (A) (A) (A) (A) (A) (A) (A) (A) (A) (A)
                 (A) (A) (A) (A) (A) (A) (A) (A) (A) (A) (A) (A)
                 (A) (A) (A) (A) (A) (A) (A) (A) (A) (A) (A) (A)
                 (A) (A) (A) (A) (A) (A) (A) (A) (A) (A) (A) (A)
                 (A) (A) (A) (A) (A) (A) (A) (A) (A) (A) (A) (A)
                 (A) (A) (A) (A) (A) (A) (A) (A) (A) (A) (A) (A)
                 (A) (A) (A) (A) (A) (A) (A) (A) (A) (A) (A) (A)
                 (A) (A) (A) (A) (A) (A) (A) (A) (A) (A) (A) (A)
                 (A) (A) (A) (A) (A) (A) (A) (A) (A) (A) (A) (A)
                 (A) (A) (A) (A) (A) (A) (A) (A) (A) (A) (A) (A)
                 (A) (A) (A) (A) (A) (A) (A) (A) (A) (A) (A) (A)
                 (A) (A) (A) (A) (A) (A) (A) (A) (A) (A) (A) (A)
                 (A) (A) (A) (A) (A) (A) (A) (A) (A) (A) (A) (A)
                 (A) (A) (A) (A) (A) (A) (A) (A) (A) (A) (A) (A)
                 (A) (A) (A) (A) (A) (A) (A) (A) (A) (A) (A) (A)
                 (A) (A) (A) (A) (A) (A) (A) (A) (A) (A) (A) (A)
                 (A) (A) (A) (A) (A) (A) (A) (A) (A) (A) (A) (A)
                 (A) (A) (A) (A) (A) (A) (A)
 The electronic state is 1-A.
 Alpha  occ. eigenvalues --  -19.16716 -19.16590 -19.12819 -19.12766 -14.41137
 Alpha  occ. eigenvalues --  -14.40920 -14.40506 -14.40453 -10.23702 -10.23509
 Alpha  occ. eigenvalues --  -10.21360 -10.21242 -10.18709 -10.18510 -10.17616
 Alpha  occ. eigenvalues --  -10.17592 -10.17545 -10.17509 -10.17475 -10.17467
 Alpha  occ. eigenvalues --  -10.17456 -10.17389 -10.17036 -10.16834 -10.16742
 Alpha  occ. eigenvalues --  -10.15628  -3.74589  -2.44614  -2.43787  -2.42773
 Alpha  occ. eigenvalues --   -1.09068  -1.08506  -1.07010  -1.06421  -0.90630
 Alpha  occ. eigenvalues --   -0.89434  -0.85847  -0.81935  -0.80973  -0.80613
 Alpha  occ. eigenvalues --   -0.75429  -0.74657  -0.74283  -0.74200  -0.70651
 Alpha  occ. eigenvalues --   -0.70512  -0.68423  -0.66418  -0.62334  -0.60320
 Alpha  occ. eigenvalues --   -0.60155  -0.58874  -0.54920  -0.53590  -0.53031
 Alpha  occ. eigenvalues --   -0.52106  -0.51366  -0.50918  -0.49413  -0.49043
 Alpha  occ. eigenvalues --   -0.47732  -0.46927  -0.46627  -0.46220  -0.45524
 Alpha  occ. eigenvalues --   -0.44523  -0.43175  -0.42783  -0.42506  -0.42271
 Alpha  occ. eigenvalues --   -0.42043  -0.41831  -0.41438  -0.40954  -0.40606
 Alpha  occ. eigenvalues --   -0.40069  -0.39744  -0.38944  -0.38864  -0.38372
 Alpha  occ. eigenvalues --   -0.38058  -0.37881  -0.37600  -0.37472  -0.36938
 Alpha  occ. eigenvalues --   -0.36325  -0.34766  -0.34517  -0.34322  -0.33214
 Alpha  occ. eigenvalues --   -0.32832  -0.30972  -0.30909  -0.28315  -0.27958
 Alpha  occ. eigenvalues --   -0.27747  -0.26930  -0.26427  -0.25257  -0.25086
 Alpha  occ. eigenvalues --   -0.25039  -0.22434  -0.20097  -0.19844  -0.19570
 Alpha virt. eigenvalues --   -0.09378  -0.03868  -0.03354  -0.00523   0.00094
 Alpha virt. eigenvalues --    0.00347   0.02632   0.02977   0.03213   0.06325
 Alpha virt. eigenvalues --    0.06765   0.06845   0.07805   0.11039   0.12438
 Alpha virt. eigenvalues --    0.12501   0.13490   0.14036   0.14431   0.14939
 Alpha virt. eigenvalues --    0.15545   0.16145   0.16329   0.16971   0.17164
 Alpha virt. eigenvalues --    0.17501   0.17708   0.18123   0.18303   0.18997
 Alpha virt. eigenvalues --    0.19213   0.19444   0.20123   0.20407   0.21507
 Alpha virt. eigenvalues --    0.22317   0.22779   0.23156   0.23712   0.24594
 Alpha virt. eigenvalues --    0.24908   0.25415   0.25905   0.26278   0.26918
 Alpha virt. eigenvalues --    0.26961   0.27876   0.28919   0.29560   0.29919
 Alpha virt. eigenvalues --    0.30257   0.31950   0.32109   0.33269   0.34704
 Alpha virt. eigenvalues --    0.34929   0.35980   0.36706   0.40466   0.41566
 Alpha virt. eigenvalues --    0.42184   0.42689   0.42772   0.44557   0.46952
 Alpha virt. eigenvalues --    0.48012   0.49767   0.51419   0.52684   0.53111
 Alpha virt. eigenvalues --    0.53576   0.54077   0.54619   0.55922   0.56100
 Alpha virt. eigenvalues --    0.56560   0.57019   0.57654   0.58220   0.58875
 Alpha virt. eigenvalues --    0.59517   0.59773   0.60354   0.60645   0.60747
 Alpha virt. eigenvalues --    0.61369   0.62297   0.62718   0.63096   0.63237
 Alpha virt. eigenvalues --    0.64230   0.65373   0.65849   0.66988   0.67815
 Alpha virt. eigenvalues --    0.68241   0.68799   0.69536   0.70156   0.71137
 Alpha virt. eigenvalues --    0.71333   0.71562   0.72146   0.72982   0.75050
 Alpha virt. eigenvalues --    0.75254   0.75811   0.76221   0.77925   0.79263
 Alpha virt. eigenvalues --    0.79697   0.80035   0.80465   0.82615   0.82795
 Alpha virt. eigenvalues --    0.82961   0.83603   0.84632   0.85114   0.85382
 Alpha virt. eigenvalues --    0.85780   0.86080   0.86659   0.86889   0.87107
 Alpha virt. eigenvalues --    0.88470   0.89001   0.89169   0.89855   0.90614
 Alpha virt. eigenvalues --    0.91029   0.91565   0.91714   0.92367   0.92859
 Alpha virt. eigenvalues --    0.93055   0.94486   0.94787   0.95376   0.95942
 Alpha virt. eigenvalues --    0.96113   0.97123   0.97523   0.98086   0.99222
 Alpha virt. eigenvalues --    1.00021   1.00695   1.01098   1.02277   1.03422
 Alpha virt. eigenvalues --    1.04153   1.04559   1.05118   1.05551   1.06200
 Alpha virt. eigenvalues --    1.07858   1.08630   1.08874   1.09851   1.10506
 Alpha virt. eigenvalues --    1.11814   1.12383   1.13329   1.14937   1.16556
 Alpha virt. eigenvalues --    1.17295   1.19701   1.19977   1.21211   1.22000
 Alpha virt. eigenvalues --    1.23253   1.23839   1.24318   1.26413   1.27530
 Alpha virt. eigenvalues --    1.28135   1.28472   1.28926   1.30626   1.31500
 Alpha virt. eigenvalues --    1.33545   1.34495   1.34626   1.35939   1.36473
 Alpha virt. eigenvalues --    1.37368   1.37664   1.38196   1.39011   1.39802
 Alpha virt. eigenvalues --    1.40108   1.41262   1.42268   1.43280   1.44196
 Alpha virt. eigenvalues --    1.44763   1.45146   1.47808   1.48982   1.50015
 Alpha virt. eigenvalues --    1.50343   1.51026   1.52072   1.52587   1.52909
 Alpha virt. eigenvalues --    1.55568   1.57224   1.60569   1.62128   1.62862
 Alpha virt. eigenvalues --    1.65007   1.68889   1.71920   1.74163   1.74917
 Alpha virt. eigenvalues --    1.75242   1.76467   1.76762   1.77659   1.78184
 Alpha virt. eigenvalues --    1.79533   1.79598   1.80242   1.80419   1.81531
 Alpha virt. eigenvalues --    1.81645   1.82571   1.83295   1.84031   1.85647
 Alpha virt. eigenvalues --    1.87034   1.88070   1.88800   1.90183   1.90499
 Alpha virt. eigenvalues --    1.91821   1.92360   1.93457   1.94555   1.94999
 Alpha virt. eigenvalues --    1.95299   1.97547   1.98114   1.98458   1.99137
 Alpha virt. eigenvalues --    2.00211   2.00831   2.02110   2.03588   2.05385
 Alpha virt. eigenvalues --    2.06974   2.09307   2.10934   2.12032   2.12520
 Alpha virt. eigenvalues --    2.13160   2.13956   2.14692   2.14869   2.15650
 Alpha virt. eigenvalues --    2.15931   2.17187   2.19263   2.19952   2.20415
 Alpha virt. eigenvalues --    2.21676   2.23578   2.24398   2.26405   2.28176
 Alpha virt. eigenvalues --    2.28542   2.29738   2.29925   2.30920   2.32046
 Alpha virt. eigenvalues --    2.32923   2.33136   2.33455   2.33822   2.34417
 Alpha virt. eigenvalues --    2.34659   2.36168   2.36546   2.38031   2.39858
 Alpha virt. eigenvalues --    2.40559   2.44063   2.45692   2.46105   2.51595
 Alpha virt. eigenvalues --    2.51881   2.53431   2.53525   2.54474   2.56560
 Alpha virt. eigenvalues --    2.56643   2.57080   2.58222   2.60488   2.60883
 Alpha virt. eigenvalues --    2.64157   2.64357   2.65243   2.66292   2.66712
 Alpha virt. eigenvalues --    2.67868   2.68137   2.70713   2.73971   2.75227
 Alpha virt. eigenvalues --    2.76155   2.77469   2.78739   2.82029   2.85476
 Alpha virt. eigenvalues --    2.86930   2.90926   2.91616   2.93224   2.96348
 Alpha virt. eigenvalues --    3.02382   3.05433   3.05785   3.08693   3.10356
 Alpha virt. eigenvalues --    3.10756   3.22705   3.29624   3.32489   3.46509
 Alpha virt. eigenvalues --   21.57472
          Condensed to atoms (all electrons):
 Mulliken charges:
               1
     1  Co   0.327366
     2  N   -0.171987
     3  O   -0.572508
     4  C    0.334656
     5  C   -0.549242
     6  H    0.201862
     7  H    0.198948
     8  H    0.200651
     9  N   -0.083847
    10  O   -0.553717
    11  C    0.270098
    12  C   -0.549122
    13  H    0.190396
    14  H    0.185933
    15  H    0.189949
    16  N   -0.170247
    17  O   -0.572710
    18  C    0.325449
    19  C   -0.546142
    20  H    0.205371
    21  H    0.199139
    22  H    0.200225
    23  N   -0.067756
    24  O   -0.555393
    25  C    0.269550
    26  C   -0.546942
    27  H    0.190078
    28  H    0.189575
    29  H    0.187018
    30  H    0.469994
    31  H    0.473109
    32  C   -0.408133
    33  H    0.195318
    34  H    0.190658
    35  C    0.239763
    36  C   -0.273438
    37  H    0.152279
    38  C   -0.545736
    39  H    0.176714
    40  H    0.170040
    41  H    0.171687
    42  C    0.159044
    43  C   -0.204399
    44  C   -0.210177
    45  C   -0.157098
    46  H    0.161182
    47  C   -0.155340
    48  H    0.158235
    49  C   -0.151576
    50  H    0.153789
    51  H    0.154022
    52  H    0.153412
 Sum of Mulliken charges =  -0.00000
 Mulliken charges with hydrogens summed into heavy atoms:
               1
     1  Co   0.327366
     2  N   -0.171987
     3  O   -0.102513
     4  C    0.334656
     5  C    0.052219
     9  N   -0.083847
    10  O   -0.553717
    11  C    0.270098
    12  C    0.017156
    16  N   -0.170247
    17  O   -0.099601
    18  C    0.325449
    19  C    0.058592
    23  N   -0.067756
    24  O   -0.555393
    25  C    0.269550
    26  C    0.019729
    32  C   -0.022156
    35  C    0.239763
    36  C   -0.121158
    38  C   -0.027296
    42  C    0.159044
    43  C   -0.043216
    44  C   -0.051943
    45  C   -0.003309
    47  C   -0.001318
    49  C    0.001836
 Electronic spatial extent (au):  <R**2>=          10441.2624
 Charge=             -0.0000 electrons
 Dipole moment (field-independent basis, Debye):
    X=             -0.1880    Y=              0.1468    Z=              0.7698  Tot=              0.8059
 Quadrupole moment (field-independent basis, Debye-Ang):
   XX=           -132.1434   YY=           -169.8432   ZZ=           -168.7924
   XY=              8.6939   XZ=              8.5035   YZ=             16.8182
 Traceless Quadrupole moment (field-independent basis, Debye-Ang):
   XX=             24.7829   YY=            -12.9168   ZZ=            -11.8661
   XY=              8.6939   XZ=              8.5035   YZ=             16.8182
 Octapole moment (field-independent basis, Debye-Ang**2):
  XXX=           -130.0476  YYY=             -0.5343  ZZZ=             33.4039  XYY=             21.4799
  XXY=            -21.3143  XXZ=             -0.7540  XZZ=            -29.7948  YZZ=             20.0555
  YYZ=              6.3842  XYZ=             -8.3473
 Hexadecapole moment (field-independent basis, Debye-Ang**3):
 XXXX=          -8271.6560 YYYY=          -2365.4964 ZZZZ=          -1900.7798 XXXY=             96.5900
 XXXZ=            144.3992 YYYX=             13.4956 YYYZ=             45.3323 ZZZX=             93.4409
 ZZZY=             30.5696 XXYY=          -1908.1254 XXZZ=          -1996.6179 YYZZ=           -697.3206
 XXYZ=             77.9987 YYXZ=             -9.3616 ZZXY=             32.6706
 N-N= 3.000427476707D+03 E-N=-9.192155591301D+03  KE= 1.300223256536D+03
 Unable to Open any file for archive entry.
 1\1\GINC-N204\SP\RB3LYP\GenECP\C18H25Co1N4O4\CJD\02-Mar-2023\0\\# B3LY
 P/genecp em=GD3BJ int=fine scrf=(smd,solvent=acetone)\\Template\\0,1\C
 o,0,-1.0234694062,-0.5089272842,-0.7804949863\N,0,-1.0305812443,1.3369
 819377,-0.4246012621\O,0,-0.9026787107,2.3369982325,-1.346601736\C,0,-
 1.2038502665,1.653825167,0.8177919014\C,0,-1.3041243734,3.0542607192,1
 .3183205845\H,0,-2.2856382239,3.2234541526,1.7581705131\H,0,-1.1550804
 322,3.7494418162,0.4964127784\H,0,-0.5558279888,3.2272888689,2.0884856
 022\N,0,-1.1558651339,-0.6293209448,1.1023905632\O,0,-1.2233175781,-1.
 7456051368,1.7593769015\C,0,-1.284496864,0.5198387036,1.7037937266\C,0
 ,-1.4717543205,0.6615915182,3.1800524726\H,0,-1.5431435977,-0.33245999
 21,3.6166631807\H,0,-2.3775851068,1.2206904119,3.4067128753\H,0,-0.623
 2184702,1.1830996229,3.6203366893\N,0,-1.2718129962,-2.3395032122,-1.1
 172344728\O,0,-1.2203569546,-3.3429186891,-0.1942184219\C,0,-1.5263045
 8,-2.6380089028,-2.3512012238\C,0,-1.7890188503,-4.0227974239,-2.83514
 34263\H,0,-0.9520199615,-4.3641557285,-3.4423238141\H,0,-2.6857565821,
 -4.0464538333,-3.449608412\H,0,-1.903974509,-4.6909055713,-1.985395892
 2\N,0,-1.2148439305,-0.3777444868,-2.64940095\O,0,-1.1475581006,0.7371
 17598,-3.303154539\C,0,-1.5077572372,-1.5025141134,-3.2401743291\C,0,-
 1.7781119292,-1.6180645718,-4.7062138347\H,0,-1.6341921811,-0.64029346
 82,-5.1613464362\H,0,-2.8006370327,-1.9462578757,-4.8872638967\H,0,-1.
 0989774544,-2.3334419372,-5.1652259491\H,0,-0.9540317025,1.8484149259,
 -2.2546071978\H,0,-1.205944688,-2.8425713491,0.7184329337\C,0,0.995175
 6769,-0.578223808,-0.991908485\H,0,1.1763505615,-1.5901337589,-1.35318
 96764\H,0,1.18680234,0.1663123548,-1.7640816639\C,0,1.7028499984,-0.29
 95113146,0.2443885164\C,0,2.0868450265,0.9770264403,0.510333048\H,0,1.
 7661887153,1.7304967883,-0.199606491\C,0,1.9806079095,-1.4693201542,1.
 1421349286\H,0,2.9622426355,-1.8870843563,0.9205665258\H,0,1.948929627
 6,-1.181376742,2.189363494\H,0,1.2427360914,-2.2487728644,0.976411659\
 C,0,2.8186542778,1.5198729955,1.6348437614\C,0,3.7314441644,0.80056396
 81,2.4133950191\C,0,2.6222170967,2.8736658491,1.9447335521\C,0,4.38014
 25361,1.4001168666,3.4773546617\H,0,3.9690183774,-0.2186494425,2.16293
 53895\C,0,3.2595281318,3.464605176,3.0160416369\H,0,1.9464672801,3.455
 8558265,1.3347466222\C,0,4.1387721176,2.7267837588,3.7951091469\H,0,5.
 0848764907,0.8269728245,4.0623909911\H,0,3.0796206892,4.5056174377,3.2
 427621922\H,0,4.6424679603,3.1873124463,4.6319964647\\Version=ES64L-G1
 6RevC.01\State=1-A\HF=-1365.9333\RMSD=4.061e-09\Dipole=-0.2852224,-0.0
 176268,0.1373574\Quadrupole=-1.2653919,0.2280046,1.0373872,-0.4774219,
 5.7391641,21.408917\PG=C01 [X(C18H25Co1N4O4)]\\@
 The archive entry for this job was punched.


 I DON'T PRETEND TO UNDERSTAND THE UNIVERSE --
 IT'S A GREAT DEAL BIGGER THAN I AM.
       -- ATTR. TO WILLIAM ALLINGHAM (1828-89)
 Job cpu time:       0 days  0 hours 22 minutes 57.6 seconds.
 Elapsed time:       0 days  0 hours  1 minutes 28.4 seconds.
 File lengths (MBytes):  RWF=    333 Int=      0 D2E=      0 Chk=     14 Scr=      1
 Normal termination of Gaussian 16 at Thu Mar  2 08:45:57 2023.
