 Entering Gaussian System, Link 0=g16
 Initial command:
 /opt/local/g16/l1.exe "/data/tmp/cjd/Gau-3368.inp" -scrdir="/data/tmp/cjd/"
 Entering Link 1 = /opt/local/g16/l1.exe PID=      3384.
  
 Copyright (c) 1988-2019, Gaussian, Inc.  All Rights Reserved.
  
 This is part of the Gaussian(R) 16 program.  It is based on
 the Gaussian(R) 09 system (copyright 2009, Gaussian, Inc.),
 the Gaussian(R) 03 system (copyright 2003, Gaussian, Inc.),
 the Gaussian(R) 98 system (copyright 1998, Gaussian, Inc.),
 the Gaussian(R) 94 system (copyright 1995, Gaussian, Inc.),
 the Gaussian 92(TM) system (copyright 1992, Gaussian, Inc.),
 the Gaussian 90(TM) system (copyright 1990, Gaussian, Inc.),
 the Gaussian 88(TM) system (copyright 1988, Gaussian, Inc.),
 the Gaussian 86(TM) system (copyright 1986, Carnegie Mellon
 University), and the Gaussian 82(TM) system (copyright 1983,
 Carnegie Mellon University). Gaussian is a federally registered
 trademark of Gaussian, Inc.
  
 This software contains proprietary and confidential information,
 including trade secrets, belonging to Gaussian, Inc.
  
 This software is provided under written license and may be
 used, copied, transmitted, or stored only in accord with that
 written license.
  
 The following legend is applicable only to US Government
 contracts under FAR:
  
                    RESTRICTED RIGHTS LEGEND
  
 Use, reproduction and disclosure by the US Government is
 subject to restrictions as set forth in subparagraphs (a)
 and (c) of the Commercial Computer Software - Restricted
 Rights clause in FAR 52.227-19.
  
 Gaussian, Inc.
 340 Quinnipiac St., Bldg. 40, Wallingford CT 06492
  
  
 ---------------------------------------------------------------
 Warning -- This program may not be used in any manner that
 competes with the business of Gaussian, Inc. or will provide
 assistance to any competitor of Gaussian, Inc.  The licensee
 of this program is prohibited from giving any competitor of
 Gaussian, Inc. access to this program.  By using this program,
 the user acknowledges that Gaussian, Inc. is engaged in the
 business of creating and licensing software in the field of
 computational chemistry and represents and warrants to the
 licensee that it is not a competitor of Gaussian, Inc. and that
 it will not use this program in any manner prohibited above.
 ---------------------------------------------------------------
  

 Cite this work as:
 Gaussian 16, Revision C.01,
 M. J. Frisch, G. W. Trucks, H. B. Schlegel, G. E. Scuseria, 
 M. A. Robb, J. R. Cheeseman, G. Scalmani, V. Barone, 
 G. A. Petersson, H. Nakatsuji, X. Li, M. Caricato, A. V. Marenich, 
 J. Bloino, B. G. Janesko, R. Gomperts, B. Mennucci, H. P. Hratchian, 
 J. V. Ortiz, A. F. Izmaylov, J. L. Sonnenberg, D. Williams-Young, 
 F. Ding, F. Lipparini, F. Egidi, J. Goings, B. Peng, A. Petrone, 
 T. Henderson, D. Ranasinghe, V. G. Zakrzewski, J. Gao, N. Rega, 
 G. Zheng, W. Liang, M. Hada, M. Ehara, K. Toyota, R. Fukuda, 
 J. Hasegawa, M. Ishida, T. Nakajima, Y. Honda, O. Kitao, H. Nakai, 
 T. Vreven, K. Throssell, J. A. Montgomery, Jr., J. E. Peralta, 
 F. Ogliaro, M. J. Bearpark, J. J. Heyd, E. N. Brothers, K. N. Kudin, 
 V. N. Staroverov, T. A. Keith, R. Kobayashi, J. Normand, 
 K. Raghavachari, A. P. Rendell, J. C. Burant, S. S. Iyengar, 
 J. Tomasi, M. Cossi, J. M. Millam, M. Klene, C. Adamo, R. Cammi, 
 J. W. Ochterski, R. L. Martin, K. Morokuma, O. Farkas, 
 J. B. Foresman, and D. J. Fox, Gaussian, Inc., Wallingford CT, 2019.
 
 ******************************************
 Gaussian 16:  ES64L-G16RevC.01  3-Jul-2019
                 2-Mar-2023 
 ******************************************
 %nproc=16
 Will use up to   16 processors via shared memory.
 %mem=60GB
 -----------------------------------------------------------
 # B3LYP/genecp em=GD3BJ int=fine scrf=(smd,solvent=acetone)
 -----------------------------------------------------------
 1/38=1,172=1/1;
 2/12=2,17=6,18=5,40=1/2;
 3/5=7,11=2,16=1,17=8,25=1,30=1,70=32201,72=19,74=-5,75=-4,124=41/1,2,3;
 4//1;
 5/5=2,38=5,53=19/2;
 6/7=2,8=2,9=2,10=2,28=1/1;
 99/5=1,9=1/99;
 --------
 Template
 --------
 Symbolic Z-matrix:
 Charge =  0 Multiplicity = 1
 Co                   -1.24772  -0.07606  -0.54624 
 N                    -2.81512   0.94934  -0.41792 
 O                    -3.34528   1.73832  -1.39545 
 C                    -3.43981   0.85057   0.7113 
 C                    -4.72595   1.54024   1.01488 
 H                    -4.56083   2.31223   1.76473 
 H                    -5.45163   0.83316   1.41007 
 H                    -5.11448   2.0021    0.11105 
 N                    -1.63572  -0.47229   1.2586 
 O                    -0.89674  -1.21799   2.01932 
 C                    -2.76297   0.02668   1.68337 
 C                    -3.30174  -0.20628   3.0589 
 H                    -3.44608   0.73856   3.57914 
 H                    -2.58876  -0.816     3.61026 
 H                    -4.25715  -0.72704   3.01759 
 N                     0.13596  -1.33813  -0.74035 
 O                     0.72454  -2.04978   0.26175 
 C                     0.49999  -1.56114  -1.96184 
 C                     1.5323   -2.5612   -2.35683 
 H                     2.31229  -2.08103  -2.94327 
 H                     1.08295  -3.3423   -2.96804 
 H                     1.96713  -3.00631  -1.46591 
 N                    -1.02496   0.10629  -2.40821 
 O                    -1.70321   0.93136  -3.14429 
 C                    -0.17607  -0.73372  -2.93189 
 C                     0.09405  -0.82548  -4.4 
 H                    -0.55026  -0.11581  -4.91525 
 H                    -0.11068  -1.82928  -4.76787 
 H                     1.13361  -0.58532  -4.6161 
 H                    -2.74893   1.55152  -2.22272 
 H                     0.17923  -1.79036   1.10316 
 C                    -0.12781   1.55292  -0.09666 
 H                    -0.30198   2.21959  -0.94055 
 H                    -0.58811   1.9303    0.81627 
 C                     1.27125   1.21485   0.07978 
 C                     1.70818   0.80985   1.3017 
 H                     0.95135   0.67231   2.06397 
 C                     2.15906   1.33951  -1.12521 
 H                     1.57625   1.18842  -2.02986 
 H                     2.58552   2.34098  -1.17112 
 H                     2.96836   0.61545  -1.09426 
 C                     3.04234   0.45612   1.73755 
 C                     4.21286   1.0223    1.22269 
 C                     3.16528  -0.48093   2.77266 
 C                     5.45206   0.63934   1.70183 
 H                     4.15376   1.79744   0.47742 
 C                     4.40451  -0.87283   3.23566 
 H                     2.27006  -0.9141    3.19397 
 C                     5.5566   -0.31696   2.6989 
 H                     6.34481   1.09389   1.29688 
 H                     4.47635  -1.60854   4.02376 
 H                     6.52712  -0.61757   3.06536 
 
 Stoichiometry    C18H25CoN4O4
 Framework group  C1[X(C18H25CoN4O4)]
 Deg. of freedom   150
 Full point group                 C1      NOp   1
 Largest Abelian subgroup         C1      NOp   1
 Largest concise Abelian subgroup C1      NOp   1
                         Standard orientation:                         
 ---------------------------------------------------------------------
 Center     Atomic      Atomic             Coordinates (Angstroms)
 Number     Number       Type             X           Y           Z
 ---------------------------------------------------------------------
      1         27           0        1.376539    0.155514    0.186702
      2          7           0        2.913472   -0.576884   -0.604578
      3          8           0        3.790075    0.075664   -1.419970
      4          6           0        3.145596   -1.813586   -0.301578
      5          6           0        4.331446   -2.579890   -0.779586
      6          1           0        4.013033   -3.350760   -1.479503
      7          1           0        4.831313   -3.065362    0.055401
      8          1           0        5.021389   -1.907849   -1.283101
      9          7           0        1.148153   -1.606329    0.826028
     10          8           0        0.145083   -1.998694    1.547664
     11          6           0        2.128700   -2.412595    0.528438
     12          6           0        2.190945   -3.837139    0.979470
     13          1           0        2.252305   -4.507568    0.124504
     14          1           0        1.289769   -4.059103    1.547540
     15          1           0        3.060497   -4.005177    1.612984
     16          7           0        0.012324    0.929937    1.227973
     17          8           0       -0.920136    0.260276    1.962230
     18          6           0        0.026181    2.223245    1.265978
     19          6           0       -0.919379    3.045724    2.072977
     20          1           0       -1.432018    3.760625    1.433474
     21          1           0       -0.375782    3.603006    2.834257
     22          1           0       -1.647605    2.397122    2.552518
     23          7           0        1.759541    1.953380   -0.226550
     24          8           0        2.704732    2.328943   -1.031635
     25          6           0        1.042034    2.820070    0.432609
     26          6           0        1.233164    4.299577    0.326490
     27          1           0        2.067266    4.493295   -0.345074
     28          1           0        1.449543    4.731501    1.301928
     29          1           0        0.338222    4.776106   -0.069817
     30          1           0        3.465147    1.060093   -1.404735
     31          1           0       -0.641290   -0.732921    1.870327
     32          6           0        0.325656   -0.173497   -1.515446
     33          1           0        0.812795    0.475687   -2.242209
     34          1           0        0.512625   -1.226155   -1.726851
     35          6           0       -1.083843    0.122067   -1.345929
     36          6           0       -1.913009   -0.844298   -0.869845
     37          1           0       -1.445600   -1.767900   -0.551651
     38          6           0       -1.539141    1.504323   -1.717166
     39          1           0       -0.720905    2.208286   -1.591419
     40          1           0       -1.837303    1.529008   -2.764744
     41          1           0       -2.380560    1.818791   -1.106179
     42          6           0       -3.342937   -0.810624   -0.647928
     43          6           0       -4.239512   -0.060364   -1.415399
     44          6           0       -3.865493   -1.616478    0.372948
     45          6           0       -5.595661   -0.091414   -1.147504
     46          1           0       -3.881975    0.514022   -2.253256
     47          6           0       -5.217479   -1.630979    0.647871
     48          1           0       -3.188341   -2.216272    0.963083
     49          6           0       -6.090764   -0.863988   -0.109444
     50          1           0       -6.273600    0.489110   -1.756592
     51          1           0       -5.596764   -2.247743    1.449913
     52          1           0       -7.150210   -0.879908    0.100080
 ---------------------------------------------------------------------
 Rotational constants (GHZ):           0.2619799           0.1374695           0.1094949
 General basis read from cards:  (5D, 7F)
 ======================================================================================================
                                       Pseudopotential Parameters
 ======================================================================================================
  Center     Atomic      Valence      Angular      Power
  Number     Number     Electrons     Momentum     of R      Exponent        Coefficient   SO-Coeffient
 ======================================================================================================
    1         27           17
                                      D and up 
                                                     1      434.1076104      -10.00000000    0.00000000
                                                     2       78.8402758      -66.72402760    0.00000000
                                                     2       19.6037749      -11.71922430    0.00000000
                                      S - D
                                                     0      151.2307582        3.00000000    0.00000000
                                                     1      169.6790026       20.15531100    0.00000000
                                                     2       64.9909423      413.37622440    0.00000000
                                                     2       12.5076287      133.87277050    0.00000000
                                      P - D
                                                     0       92.7319924        5.00000000    0.00000000
                                                     1      121.1910183        6.18923530    0.00000000
                                                     2       48.6265909      326.32159190    0.00000000
                                                     2       11.9966971       73.87889700    0.00000000
    2          7
                                   No pseudopotential on this center.
    3          8
                                   No pseudopotential on this center.
    4          6
                                   No pseudopotential on this center.
    5          6
                                   No pseudopotential on this center.
    6          1
                                   No pseudopotential on this center.
    7          1
                                   No pseudopotential on this center.
    8          1
                                   No pseudopotential on this center.
    9          7
                                   No pseudopotential on this center.
   10          8
                                   No pseudopotential on this center.
   11          6
                                   No pseudopotential on this center.
   12          6
                                   No pseudopotential on this center.
   13          1
                                   No pseudopotential on this center.
   14          1
                                   No pseudopotential on this center.
   15          1
                                   No pseudopotential on this center.
   16          7
                                   No pseudopotential on this center.
   17          8
                                   No pseudopotential on this center.
   18          6
                                   No pseudopotential on this center.
   19          6
                                   No pseudopotential on this center.
   20          1
                                   No pseudopotential on this center.
   21          1
                                   No pseudopotential on this center.
   22          1
                                   No pseudopotential on this center.
   23          7
                                   No pseudopotential on this center.
   24          8
                                   No pseudopotential on this center.
   25          6
                                   No pseudopotential on this center.
   26          6
                                   No pseudopotential on this center.
   27          1
                                   No pseudopotential on this center.
   28          1
                                   No pseudopotential on this center.
   29          1
                                   No pseudopotential on this center.
   30          1
                                   No pseudopotential on this center.
   31          1
                                   No pseudopotential on this center.
   32          6
                                   No pseudopotential on this center.
   33          1
                                   No pseudopotential on this center.
   34          1
                                   No pseudopotential on this center.
   35          6
                                   No pseudopotential on this center.
   36          6
                                   No pseudopotential on this center.
   37          1
                                   No pseudopotential on this center.
   38          6
                                   No pseudopotential on this center.
   39          1
                                   No pseudopotential on this center.
   40          1
                                   No pseudopotential on this center.
   41          1
                                   No pseudopotential on this center.
   42          6
                                   No pseudopotential on this center.
   43          6
                                   No pseudopotential on this center.
   44          6
                                   No pseudopotential on this center.
   45          6
                                   No pseudopotential on this center.
   46          1
                                   No pseudopotential on this center.
   47          6
                                   No pseudopotential on this center.
   48          1
                                   No pseudopotential on this center.
   49          6
                                   No pseudopotential on this center.
   50          1
                                   No pseudopotential on this center.
   51          1
                                   No pseudopotential on this center.
   52          1
                                   No pseudopotential on this center.
 ======================================================================================================
 There are   464 symmetry adapted cartesian basis functions of A   symmetry.
 There are   436 symmetry adapted basis functions of A   symmetry.
   436 basis functions,   880 primitive gaussians,   464 cartesian basis functions
   105 alpha electrons      105 beta electrons
       nuclear repulsion energy      2997.7201044166 Hartrees.
 NAtoms=   52 NActive=   52 NUniq=   52 SFac= 1.00D+00 NAtFMM=   60 NAOKFM=F Big=F
 Integral buffers will be    131072 words long.
 Raffenetti 2 integral format.
 Two-electron integral symmetry is turned on.
 Nuclear repulsion after empirical dispersion term =     2997.5960265628 Hartrees.
 ------------------------------------------------------------------------------
 Polarizable Continuum Model (PCM)
 =================================
 Model                : PCM.
 Atomic radii         : SMD-Coulomb.
 Polarization charges : Total charges.
 Charge compensation  : None.
 Solution method      : On-the-fly selection.
 Cavity type          : VdW (van der Waals Surface) (Alpha=1.000).
 Cavity algorithm     : GePol (No added spheres)
                        Default sphere list used, NSphG=   52.
                        Lebedev-Laikov grids with approx.  5.0 points / Ang**2.
                        Smoothing algorithm: York/Karplus (Gamma=1.0000).
                        Polarization charges: spherical gaussians, with
                                              point-specific exponents (IZeta= 3).
                        Self-potential: point-specific (ISelfS= 7).
                        Self-field    : sphere-specific E.n sum rule (ISelfD= 2).
 Solvent              : Acetone, Eps=  20.493000 Eps(inf)=   1.846337
 ------------------------------------------------------------------------------
 ------------------------------------------------------------------------------
 Atomic radii for non-electrostatic terms: SMD-CDS.
 ------------------------------------------------------------------------------
 Nuclear repulsion after PCM non-electrostatic terms =     2997.5895952846 Hartrees.
 One-electron integrals computed using PRISM.
   1 Symmetry operations used in ECPInt.
 ECPInt:  NShTT=   13203 NPrTT=   81964 LenC2=   11342 LenP2D=   39254.
 LDataN:  DoStor=T MaxTD1= 4 Len=   56
 NBasis=   436 RedAO= T EigKep=  4.36D-04  NBF=   436
 NBsUse=   436 1.00D-06 EigRej= -1.00D+00 NBFU=   436
 ExpMin= 2.30D-02 ExpMax= 5.48D+03 ExpMxC= 8.25D+02 IAcc=3 IRadAn=         5 AccDes= 0.00D+00
 Harris functional with IExCor=  402 and IRadAn=       5 diagonalized for initial guess.
 HarFok:  IExCor=  402 AccDes= 0.00D+00 IRadAn=         5 IDoV= 1 UseB2=F ITyADJ=14
 ICtDFT=  3500011 ScaDFX=  1.000000  1.000000  1.000000  1.000000
 FoFCou: FMM=F IPFlag=           0 FMFlag=      100000 FMFlg1=           0
         NFxFlg=           0 DoJE=T BraDBF=F KetDBF=T FulRan=T
         wScrn=  0.000000 ICntrl=       500 IOpCl=  0 I1Cent=   200000004 NGrid=           0
         NMat0=    1 NMatS0=      1 NMatT0=    0 NMatD0=    1 NMtDS0=    0 NMtDT0=    0
 Petite list used in FoFCou.
 Requested convergence on RMS density matrix=1.00D-08 within 128 cycles.
 Requested convergence on MAX density matrix=1.00D-06.
 Requested convergence on             energy=1.00D-06.
 No special actions if energy rises.
 Inv3:  Mode=1 IEnd=    40826163.
 Iteration    1 A*A^-1 deviation from unit magnitude is 3.33D-15 for   1643.
 Iteration    1 A*A^-1 deviation from orthogonality  is 2.40D-15 for   1151   1013.
 Iteration    1 A^-1*A deviation from unit magnitude is 2.89D-15 for   1643.
 Iteration    1 A^-1*A deviation from orthogonality  is 4.20D-15 for   1033    998.
 EnCoef did     5 forward-backward iterations
 Restarting incremental Fock formation.
 Error on total polarization charges =  0.04602
 SCF Done:  E(RB3LYP) =  -1365.93260419     A.U. after   21 cycles
            NFock= 21  Conv=0.35D-08     -V/T= 2.0505
 SMD-CDS (non-electrostatic) energy       (kcal/mol) =      -4.04
 (included in total energy above)

 **********************************************************************

            Population analysis using the SCF Density.

 **********************************************************************

 Orbital symmetries:
       Occupied  (A) (A) (A) (A) (A) (A) (A) (A) (A) (A) (A) (A)
                 (A) (A) (A) (A) (A) (A) (A) (A) (A) (A) (A) (A)
                 (A) (A) (A) (A) (A) (A) (A) (A) (A) (A) (A) (A)
                 (A) (A) (A) (A) (A) (A) (A) (A) (A) (A) (A) (A)
                 (A) (A) (A) (A) (A) (A) (A) (A) (A) (A) (A) (A)
                 (A) (A) (A) (A) (A) (A) (A) (A) (A) (A) (A) (A)
                 (A) (A) (A) (A) (A) (A) (A) (A) (A) (A) (A) (A)
                 (A) (A) (A) (A) (A) (A) (A) (A) (A) (A) (A) (A)
                 (A) (A) (A) (A) (A) (A) (A) (A) (A)
       Virtual   (A) (A) (A) (A) (A) (A) (A) (A) (A) (A) (A) (A)
                 (A) (A) (A) (A) (A) (A) (A) (A) (A) (A) (A) (A)
                 (A) (A) (A) (A) (A) (A) (A) (A) (A) (A) (A) (A)
                 (A) (A) (A) (A) (A) (A) (A) (A) (A) (A) (A) (A)
                 (A) (A) (A) (A) (A) (A) (A) (A) (A) (A) (A) (A)
                 (A) (A) (A) (A) (A) (A) (A) (A) (A) (A) (A) (A)
                 (A) (A) (A) (A) (A) (A) (A) (A) (A) (A) (A) (A)
                 (A) (A) (A) (A) (A) (A) (A) (A) (A) (A) (A) (A)
                 (A) (A) (A) (A) (A) (A) (A) (A) (A) (A) (A) (A)
                 (A) (A) (A) (A) (A) (A) (A) (A) (A) (A) (A) (A)
                 (A) (A) (A) (A) (A) (A) (A) (A) (A) (A) (A) (A)
                 (A) (A) (A) (A) (A) (A) (A) (A) (A) (A) (A) (A)
                 (A) (A) (A) (A) (A) (A) (A) (A) (A) (A) (A) (A)
                 (A) (A) (A) (A) (A) (A) (A) (A) (A) (A) (A) (A)
                 (A) (A) (A) (A) (A) (A) (A) (A) (A) (A) (A) (A)
                 (A) (A) (A) (A) (A) (A) (A) (A) (A) (A) (A) (A)
                 (A) (A) (A) (A) (A) (A) (A) (A) (A) (A) (A) (A)
                 (A) (A) (A) (A) (A) (A) (A) (A) (A) (A) (A) (A)
                 (A) (A) (A) (A) (A) (A) (A) (A) (A) (A) (A) (A)
                 (A) (A) (A) (A) (A) (A) (A) (A) (A) (A) (A) (A)
                 (A) (A) (A) (A) (A) (A) (A) (A) (A) (A) (A) (A)
                 (A) (A) (A) (A) (A) (A) (A) (A) (A) (A) (A) (A)
                 (A) (A) (A) (A) (A) (A) (A) (A) (A) (A) (A) (A)
                 (A) (A) (A) (A) (A) (A) (A) (A) (A) (A) (A) (A)
                 (A) (A) (A) (A) (A) (A) (A) (A) (A) (A) (A) (A)
                 (A) (A) (A) (A) (A) (A) (A) (A) (A) (A) (A) (A)
                 (A) (A) (A) (A) (A) (A) (A) (A) (A) (A) (A) (A)
                 (A) (A) (A) (A) (A) (A) (A)
 The electronic state is 1-A.
 Alpha  occ. eigenvalues --  -19.16611 -19.16359 -19.12685 -19.12662 -14.40950
 Alpha  occ. eigenvalues --  -14.40923 -14.40582 -14.40400 -10.23588 -10.23530
 Alpha  occ. eigenvalues --  -10.21382 -10.21332 -10.18531 -10.18442 -10.17536
 Alpha  occ. eigenvalues --  -10.17505 -10.17466 -10.17442 -10.17427 -10.17417
 Alpha  occ. eigenvalues --  -10.17393 -10.17390 -10.16919 -10.16812 -10.16809
 Alpha  occ. eigenvalues --  -10.15863  -3.74362  -2.44389  -2.43604  -2.42511
 Alpha  occ. eigenvalues --   -1.09024  -1.08469  -1.06856  -1.06311  -0.90569
 Alpha  occ. eigenvalues --   -0.89366  -0.85756  -0.81890  -0.80934  -0.80561
 Alpha  occ. eigenvalues --   -0.75328  -0.74632  -0.74193  -0.74175  -0.70637
 Alpha  occ. eigenvalues --   -0.70514  -0.68474  -0.66366  -0.62286  -0.60282
 Alpha  occ. eigenvalues --   -0.60063  -0.58780  -0.54881  -0.53512  -0.52951
 Alpha  occ. eigenvalues --   -0.52057  -0.51260  -0.50828  -0.49463  -0.48957
 Alpha  occ. eigenvalues --   -0.47596  -0.47020  -0.46602  -0.46078  -0.45294
 Alpha  occ. eigenvalues --   -0.44458  -0.43400  -0.42635  -0.42295  -0.42196
 Alpha  occ. eigenvalues --   -0.42006  -0.41816  -0.41514  -0.40992  -0.40542
 Alpha  occ. eigenvalues --   -0.39979  -0.39607  -0.39310  -0.38789  -0.38171
 Alpha  occ. eigenvalues --   -0.38128  -0.38042  -0.37600  -0.37353  -0.36824
 Alpha  occ. eigenvalues --   -0.36556  -0.34940  -0.34285  -0.34230  -0.33130
 Alpha  occ. eigenvalues --   -0.32897  -0.30875  -0.30543  -0.28215  -0.27972
 Alpha  occ. eigenvalues --   -0.27699  -0.26570  -0.26200  -0.25055  -0.24989
 Alpha  occ. eigenvalues --   -0.24922  -0.22332  -0.20073  -0.19698  -0.19536
 Alpha virt. eigenvalues --   -0.09163  -0.03715  -0.03311  -0.00406   0.00294
 Alpha virt. eigenvalues --    0.00486   0.02586   0.02774   0.03378   0.06103
 Alpha virt. eigenvalues --    0.06720   0.06820   0.07880   0.11073   0.12318
 Alpha virt. eigenvalues --    0.12766   0.13647   0.14300   0.14739   0.15038
 Alpha virt. eigenvalues --    0.15319   0.15863   0.16484   0.16853   0.17016
 Alpha virt. eigenvalues --    0.17485   0.17897   0.18289   0.18613   0.18904
 Alpha virt. eigenvalues --    0.19270   0.19611   0.19958   0.20156   0.21703
 Alpha virt. eigenvalues --    0.21967   0.22523   0.23107   0.23946   0.24745
 Alpha virt. eigenvalues --    0.25023   0.25360   0.25674   0.26044   0.26900
 Alpha virt. eigenvalues --    0.27120   0.28375   0.28823   0.29519   0.30229
 Alpha virt. eigenvalues --    0.31163   0.31784   0.32358   0.33181   0.34548
 Alpha virt. eigenvalues --    0.35383   0.36176   0.36617   0.40515   0.41344
 Alpha virt. eigenvalues --    0.42084   0.42756   0.42855   0.44711   0.46867
 Alpha virt. eigenvalues --    0.48299   0.51039   0.51365   0.52010   0.52865
 Alpha virt. eigenvalues --    0.53574   0.54239   0.54771   0.55693   0.56062
 Alpha virt. eigenvalues --    0.56442   0.57427   0.57935   0.58490   0.58736
 Alpha virt. eigenvalues --    0.58951   0.59853   0.60009   0.60455   0.60767
 Alpha virt. eigenvalues --    0.61577   0.61764   0.62466   0.62881   0.63582
 Alpha virt. eigenvalues --    0.64461   0.65014   0.65737   0.66802   0.67263
 Alpha virt. eigenvalues --    0.68530   0.68815   0.69317   0.70214   0.70448
 Alpha virt. eigenvalues --    0.71750   0.72316   0.73193   0.74516   0.75294
 Alpha virt. eigenvalues --    0.75540   0.75980   0.76499   0.76855   0.78030
 Alpha virt. eigenvalues --    0.79095   0.80570   0.81701   0.82074   0.82818
 Alpha virt. eigenvalues --    0.83575   0.84225   0.84675   0.85256   0.85385
 Alpha virt. eigenvalues --    0.85774   0.86235   0.86315   0.86523   0.87961
 Alpha virt. eigenvalues --    0.88063   0.88939   0.89306   0.90327   0.90687
 Alpha virt. eigenvalues --    0.91012   0.91327   0.91699   0.91859   0.92496
 Alpha virt. eigenvalues --    0.93321   0.94205   0.94458   0.94826   0.95355
 Alpha virt. eigenvalues --    0.96111   0.96834   0.97005   0.97821   0.98824
 Alpha virt. eigenvalues --    0.99653   1.00307   1.01225   1.02356   1.02898
 Alpha virt. eigenvalues --    1.03550   1.04203   1.04539   1.05343   1.05952
 Alpha virt. eigenvalues --    1.07368   1.07641   1.09958   1.10331   1.10439
 Alpha virt. eigenvalues --    1.10523   1.11968   1.12647   1.15813   1.16239
 Alpha virt. eigenvalues --    1.16480   1.17728   1.20223   1.21092   1.21898
 Alpha virt. eigenvalues --    1.22450   1.24372   1.24610   1.26586   1.27228
 Alpha virt. eigenvalues --    1.28415   1.29123   1.29464   1.30679   1.33003
 Alpha virt. eigenvalues --    1.33548   1.33909   1.34850   1.35693   1.36765
 Alpha virt. eigenvalues --    1.37163   1.38063   1.38869   1.39045   1.39245
 Alpha virt. eigenvalues --    1.39691   1.41998   1.42266   1.43841   1.44640
 Alpha virt. eigenvalues --    1.45011   1.46084   1.46194   1.48551   1.49972
 Alpha virt. eigenvalues --    1.50426   1.51155   1.52035   1.52916   1.53460
 Alpha virt. eigenvalues --    1.54775   1.57808   1.61075   1.61909   1.63141
 Alpha virt. eigenvalues --    1.66623   1.68561   1.70782   1.74168   1.74346
 Alpha virt. eigenvalues --    1.75259   1.76651   1.76959   1.78013   1.78721
 Alpha virt. eigenvalues --    1.79027   1.79636   1.79887   1.81495   1.81595
 Alpha virt. eigenvalues --    1.82576   1.82715   1.83471   1.83622   1.85917
 Alpha virt. eigenvalues --    1.87293   1.88343   1.89538   1.89821   1.90548
 Alpha virt. eigenvalues --    1.91865   1.92446   1.93486   1.94128   1.95155
 Alpha virt. eigenvalues --    1.96030   1.96940   1.98215   1.99011   1.99766
 Alpha virt. eigenvalues --    2.00039   2.00540   2.01427   2.03573   2.06096
 Alpha virt. eigenvalues --    2.06752   2.10086   2.10249   2.11966   2.12331
 Alpha virt. eigenvalues --    2.13626   2.13871   2.14650   2.15165   2.16010
 Alpha virt. eigenvalues --    2.16934   2.17858   2.19575   2.20259   2.20659
 Alpha virt. eigenvalues --    2.21738   2.23944   2.24700   2.27084   2.28132
 Alpha virt. eigenvalues --    2.28521   2.29548   2.30119   2.30975   2.32140
 Alpha virt. eigenvalues --    2.32951   2.33330   2.33787   2.33847   2.34341
 Alpha virt. eigenvalues --    2.34421   2.35721   2.36645   2.37660   2.39345
 Alpha virt. eigenvalues --    2.40153   2.44559   2.45204   2.45659   2.51329
 Alpha virt. eigenvalues --    2.51928   2.53052   2.53326   2.54677   2.55895
 Alpha virt. eigenvalues --    2.56908   2.57798   2.58009   2.60064   2.60732
 Alpha virt. eigenvalues --    2.64379   2.64588   2.65071   2.65926   2.66210
 Alpha virt. eigenvalues --    2.67841   2.68818   2.70958   2.74598   2.75680
 Alpha virt. eigenvalues --    2.76514   2.77753   2.78623   2.82078   2.85431
 Alpha virt. eigenvalues --    2.87250   2.90810   2.91762   2.93321   2.96840
 Alpha virt. eigenvalues --    3.03291   3.05397   3.06246   3.08402   3.10453
 Alpha virt. eigenvalues --    3.12365   3.21849   3.29678   3.32475   3.46562
 Alpha virt. eigenvalues --   21.73059
          Condensed to atoms (all electrons):
 Mulliken charges:
               1
     1  Co   0.313560
     2  N   -0.159785
     3  O   -0.573072
     4  C    0.323830
     5  C   -0.546344
     6  H    0.204256
     7  H    0.199271
     8  H    0.200257
     9  N   -0.077558
    10  O   -0.554828
    11  C    0.270071
    12  C   -0.548013
    13  H    0.187333
    14  H    0.190476
    15  H    0.188845
    16  N   -0.178363
    17  O   -0.568380
    18  C    0.330463
    19  C   -0.547887
    20  H    0.200345
    21  H    0.202101
    22  H    0.201356
    23  N   -0.075650
    24  O   -0.558437
    25  C    0.269315
    26  C   -0.549394
    27  H    0.190596
    28  H    0.187142
    29  H    0.188577
    30  H    0.470221
    31  H    0.475083
    32  C   -0.405927
    33  H    0.191483
    34  H    0.191469
    35  C    0.237373
    36  C   -0.253875
    37  H    0.156007
    38  C   -0.556455
    39  H    0.178890
    40  H    0.181125
    41  H    0.171046
    42  C    0.152318
    43  C   -0.202183
    44  C   -0.204978
    45  C   -0.158207
    46  H    0.159367
    47  C   -0.154888
    48  H    0.155051
    49  C   -0.151670
    50  H    0.152836
    51  H    0.153217
    52  H    0.152616
 Sum of Mulliken charges =  -0.00000
 Mulliken charges with hydrogens summed into heavy atoms:
               1
     1  Co   0.313560
     2  N   -0.159785
     3  O   -0.102851
     4  C    0.323830
     5  C    0.057440
     9  N   -0.077558
    10  O   -0.554828
    11  C    0.270071
    12  C    0.018641
    16  N   -0.178363
    17  O   -0.093297
    18  C    0.330463
    19  C    0.055915
    23  N   -0.075650
    24  O   -0.558437
    25  C    0.269315
    26  C    0.016921
    32  C   -0.022976
    35  C    0.237373
    36  C   -0.097868
    38  C   -0.025394
    42  C    0.152318
    43  C   -0.042816
    44  C   -0.049927
    45  C   -0.005370
    47  C   -0.001671
    49  C    0.000946
 Electronic spatial extent (au):  <R**2>=          10331.3584
 Charge=             -0.0000 electrons
 Dipole moment (field-independent basis, Debye):
    X=              0.0376    Y=              0.3097    Z=              0.7995  Tot=              0.8582
 Quadrupole moment (field-independent basis, Debye-Ang):
   XX=           -159.1869   YY=           -145.1925   ZZ=           -167.3373
   XY=            -20.7934   XZ=              8.1418   YZ=              7.4786
 Traceless Quadrupole moment (field-independent basis, Debye-Ang):
   XX=             -1.9480   YY=             12.0463   ZZ=            -10.0984
   XY=            -20.7934   XZ=              8.1418   YZ=              7.4786
 Octapole moment (field-independent basis, Debye-Ang**2):
  XXX=              5.8298  YYY=             22.4532  ZZZ=              9.5038  XYY=             52.4155
  XXY=            -60.0511  XXZ=             29.6769  XZZ=             15.4840  YZZ=             17.9624
  YYZ=             30.7714  XYZ=             29.7631
 Hexadecapole moment (field-independent basis, Debye-Ang**3):
 XXXX=          -7663.0722 YYYY=          -3715.6891 ZZZZ=          -1444.2404 XXXY=           -213.3545
 XXXZ=             25.0438 YYYX=           -174.4471 YYYZ=             90.2644 ZZZX=             -9.5796
 ZZZY=              2.1519 XXYY=          -1955.3316 XXZZ=          -1614.6985 YYZZ=           -875.0278
 XXYZ=            -84.7575 YYXZ=            -24.0748 ZZXY=            -25.1644
 N-N= 2.997589595285D+03 E-N=-9.186830460607D+03  KE= 1.300227257385D+03
 Unable to Open any file for archive entry.
 1\1\GINC-N204\SP\RB3LYP\GenECP\C18H25Co1N4O4\CJD\02-Mar-2023\0\\# B3LY
 P/genecp em=GD3BJ int=fine scrf=(smd,solvent=acetone)\\Template\\0,1\C
 o,0,-1.2477155684,-0.0760642654,-0.5462439986\N,0,-2.8151244293,0.9493
 410623,-0.4179188492\O,0,-3.3452849877,1.7383167536,-1.3954475742\C,0,
 -3.4398050303,0.8505724364,0.7113023121\C,0,-4.7259461008,1.5402360307
 ,1.0148809049\H,0,-4.5608324216,2.3122338595,1.7647268926\H,0,-5.45162
 81861,0.8331571613,1.4100725368\H,0,-5.114484241,2.0021031123,0.111052
 6571\N,0,-1.6357190978,-0.4722944089,1.2585950829\O,0,-0.896743021,-1.
 2179905352,2.0193234651\C,0,-2.7629688443,0.0266793566,1.683366291\C,0
 ,-3.3017387111,-0.2062812803,3.0588980842\H,0,-3.4460780257,0.73855984
 72,3.5791359573\H,0,-2.5887632884,-0.816004316,3.6102550563\H,0,-4.257
 1459247,-0.7270378612,3.017589436\N,0,0.1359638432,-1.3381327236,-0.74
 03488225\O,0,0.7245399858,-2.0497786757,0.2617473133\C,0,0.4999862525,
 -1.5611391273,-1.9618384591\C,0,1.5322981391,-2.561195855,-2.356833508
 8\H,0,2.3122883712,-2.0810344293,-2.9432686945\H,0,1.0829501858,-3.342
 2963977,-2.968041649\H,0,1.9671269859,-3.0063126329,-1.4659055096\N,0,
 -1.0249557122,0.1062870603,-2.4082089821\O,0,-1.7032088963,0.931364523
 5,-3.1442912298\C,0,-0.1760693737,-0.7337211473,-2.9318855924\C,0,0.09
 40482905,-0.8254754922,-4.3999967303\H,0,-0.550261328,-0.1158054862,-4
 .9152490434\H,0,-0.1106757787,-1.8292762704,-4.7678669708\H,0,1.133606
 536,-0.5853163629,-4.6161015546\H,0,-2.7489285968,1.5515150312,-2.2227
 170369\H,0,0.1792294632,-1.7903647461,1.1031644382\C,0,-0.1278061966,1
 .5529198058,-0.0966600417\H,0,-0.3019761966,2.2195908165,-0.9405454624
 \H,0,-0.5881076886,1.9303039437,0.8162712125\C,0,1.271251894,1.2148507
 31,0.079775427\C,0,1.7081759242,0.809850861,1.3017028214\H,0,0.9513476
 711,0.6723086157,2.0639699662\C,0,2.159064306,1.339506655,-1.125212436
 8\H,0,1.5762535479,1.1884243511,-2.0298626074\H,0,2.5855229764,2.34098
 28932,-1.1711202384\H,0,2.9683629231,0.615449374,-1.094260446\C,0,3.04
 23387019,0.4561230241,1.7375462805\C,0,4.2128551092,1.0223045063,1.222
 6879906\C,0,3.1652757017,-0.4809344597,2.7726613951\C,0,5.4520609873,0
 .6393407569,1.7018331024\H,0,4.1537647488,1.7974407781,0.4774182116\C,
 0,4.4045130193,-0.8728345467,3.2356586367\H,0,2.2700604069,-0.91410051
 58,3.1939722885\C,0,5.5566033912,-0.31695572,2.6988955309\H,0,6.344806
 8884,1.093893525,1.2968832491\H,0,4.4763468638,-1.608541158,4.02375915
 79\H,0,6.5271226653,-0.6175740834,3.0653645843\\Version=ES64L-G16RevC.
 01\State=1-A\HF=-1365.9326042\RMSD=3.454e-09\Dipole=-0.0191374,-0.3261
 94,-0.0851019\Quadrupole=9.0699081,-6.2108446,-2.8590635,0.3046796,-14
 .7330349,9.707108\PG=C01 [X(C18H25Co1N4O4)]\\@
 The archive entry for this job was punched.


 ERWIN WITH HIS PSI CAN DO
 CALCULATIONS QUITE A FEW.
 BUT ONE THING HAS NOT BEEN SEEN
 JUST WHAT DOES PSI REALLY MEAN.
 -- WALTER HUCKEL, TRANS. BY FELIX BLOCH
 Job cpu time:       0 days  0 hours 18 minutes 56.5 seconds.
 Elapsed time:       0 days  0 hours  1 minutes 13.0 seconds.
 File lengths (MBytes):  RWF=    331 Int=      0 D2E=      0 Chk=     14 Scr=      1
 Normal termination of Gaussian 16 at Thu Mar  2 08:40:15 2023.
