 Entering Gaussian System, Link 0=g16
 Initial command:
 /opt/local/g16/l1.exe "/data/tmp/cjd/Gau-1683.inp" -scrdir="/data/tmp/cjd/"
 Entering Link 1 = /opt/local/g16/l1.exe PID=      1684.
  
 Copyright (c) 1988-2019, Gaussian, Inc.  All Rights Reserved.
  
 This is part of the Gaussian(R) 16 program.  It is based on
 the Gaussian(R) 09 system (copyright 2009, Gaussian, Inc.),
 the Gaussian(R) 03 system (copyright 2003, Gaussian, Inc.),
 the Gaussian(R) 98 system (copyright 1998, Gaussian, Inc.),
 the Gaussian(R) 94 system (copyright 1995, Gaussian, Inc.),
 the Gaussian 92(TM) system (copyright 1992, Gaussian, Inc.),
 the Gaussian 90(TM) system (copyright 1990, Gaussian, Inc.),
 the Gaussian 88(TM) system (copyright 1988, Gaussian, Inc.),
 the Gaussian 86(TM) system (copyright 1986, Carnegie Mellon
 University), and the Gaussian 82(TM) system (copyright 1983,
 Carnegie Mellon University). Gaussian is a federally registered
 trademark of Gaussian, Inc.
  
 This software contains proprietary and confidential information,
 including trade secrets, belonging to Gaussian, Inc.
  
 This software is provided under written license and may be
 used, copied, transmitted, or stored only in accord with that
 written license.
  
 The following legend is applicable only to US Government
 contracts under FAR:
  
                    RESTRICTED RIGHTS LEGEND
  
 Use, reproduction and disclosure by the US Government is
 subject to restrictions as set forth in subparagraphs (a)
 and (c) of the Commercial Computer Software - Restricted
 Rights clause in FAR 52.227-19.
  
 Gaussian, Inc.
 340 Quinnipiac St., Bldg. 40, Wallingford CT 06492
  
  
 ---------------------------------------------------------------
 Warning -- This program may not be used in any manner that
 competes with the business of Gaussian, Inc. or will provide
 assistance to any competitor of Gaussian, Inc.  The licensee
 of this program is prohibited from giving any competitor of
 Gaussian, Inc. access to this program.  By using this program,
 the user acknowledges that Gaussian, Inc. is engaged in the
 business of creating and licensing software in the field of
 computational chemistry and represents and warrants to the
 licensee that it is not a competitor of Gaussian, Inc. and that
 it will not use this program in any manner prohibited above.
 ---------------------------------------------------------------
  

 Cite this work as:
 Gaussian 16, Revision C.01,
 M. J. Frisch, G. W. Trucks, H. B. Schlegel, G. E. Scuseria, 
 M. A. Robb, J. R. Cheeseman, G. Scalmani, V. Barone, 
 G. A. Petersson, H. Nakatsuji, X. Li, M. Caricato, A. V. Marenich, 
 J. Bloino, B. G. Janesko, R. Gomperts, B. Mennucci, H. P. Hratchian, 
 J. V. Ortiz, A. F. Izmaylov, J. L. Sonnenberg, D. Williams-Young, 
 F. Ding, F. Lipparini, F. Egidi, J. Goings, B. Peng, A. Petrone, 
 T. Henderson, D. Ranasinghe, V. G. Zakrzewski, J. Gao, N. Rega, 
 G. Zheng, W. Liang, M. Hada, M. Ehara, K. Toyota, R. Fukuda, 
 J. Hasegawa, M. Ishida, T. Nakajima, Y. Honda, O. Kitao, H. Nakai, 
 T. Vreven, K. Throssell, J. A. Montgomery, Jr., J. E. Peralta, 
 F. Ogliaro, M. J. Bearpark, J. J. Heyd, E. N. Brothers, K. N. Kudin, 
 V. N. Staroverov, T. A. Keith, R. Kobayashi, J. Normand, 
 K. Raghavachari, A. P. Rendell, J. C. Burant, S. S. Iyengar, 
 J. Tomasi, M. Cossi, J. M. Millam, M. Klene, C. Adamo, R. Cammi, 
 J. W. Ochterski, R. L. Martin, K. Morokuma, O. Farkas, 
 J. B. Foresman, and D. J. Fox, Gaussian, Inc., Wallingford CT, 2019.
 
 ******************************************
 Gaussian 16:  ES64L-G16RevC.01  3-Jul-2019
                 2-Mar-2023 
 ******************************************
 %nproc=16
 Will use up to   16 processors via shared memory.
 %mem=60GB
 -----------------------------------------------------------
 # B3LYP/genecp em=GD3BJ int=fine scrf=(smd,solvent=acetone)
 -----------------------------------------------------------
 1/38=1,172=1/1;
 2/12=2,17=6,18=5,40=1/2;
 3/5=7,11=2,16=1,17=8,25=1,30=1,70=32201,72=19,74=-5,75=-4,124=41/1,2,3;
 4//1;
 5/5=2,38=5,53=19/2;
 6/7=2,8=2,9=2,10=2,28=1/1;
 99/5=1,9=1/99;
 --------
 Template
 --------
 Symbolic Z-matrix:
 Charge =  0 Multiplicity = 1
 Co                   -1.06692  -0.6421   -0.55379 
 N                    -0.80589   1.19007  -0.198 
 O                     0.05509   2.02156  -0.84888 
 C                    -1.5598    1.67606   0.73403 
 C                    -1.55208   3.10654   1.1525 
 H                    -2.51259   3.56833   0.92937 
 H                    -0.76594   3.63619   0.62104 
 H                    -1.38244   3.18111   2.22402 
 N                    -2.26     -0.51238   0.89639 
 O                    -2.94421  -1.51      1.36518 
 C                    -2.41457   0.69663   1.36011 
 C                    -3.37171   1.04359   2.45549 
 H                    -2.83869   1.42778   3.32346 
 H                    -3.91399   0.14396   2.73976 
 H                    -4.07988   1.80063   2.12371 
 N                    -1.55547  -2.37422  -1.0828 
 O                    -2.33569  -3.24135  -0.3769 
 C                    -1.11573  -2.7352   -2.24532 
 C                    -1.42236  -4.0484   -2.88027 
 H                    -0.52267  -4.66076  -2.91017 
 H                    -1.76947  -3.90501  -3.9007 
 H                    -2.1821   -4.56547  -2.3002 
 N                    -0.08004  -0.68085  -2.16448 
 O                     0.67999   0.28492  -2.57915 
 C                    -0.26275  -1.75745  -2.87659 
 C                     0.3706   -1.98115  -4.21265 
 H                     1.01228  -1.13154  -4.43726 
 H                    -0.38676  -2.06909  -4.99017 
 H                     0.96645  -2.8916   -4.20673 
 H                     0.43808   1.4324   -1.61105 
 H                    -2.66709  -2.68295   0.43216 
 C                     0.44889  -1.39678   0.56038 
 H                    -0.04774  -2.10538   1.22242 
 H                     1.07041  -1.90173  -0.17888 
 C                     1.16341  -0.3593    1.27991 
 C                     2.16845   0.31333   0.66056 
 H                     2.32894   0.09293  -0.38767 
 C                     0.7319   -0.09254   2.6937 
 H                     1.28494  -0.7356    3.3775 
 H                     0.90607   0.94302   2.9719 
 H                    -0.32337  -0.32359   2.80875 
 C                     3.01974   1.36408   1.18057 
 C                     3.45721   2.35709   0.29462 
 C                     3.45849   1.42561   2.50661 
 C                     4.25599   3.39539   0.72875 
 H                     3.13756   2.31573  -0.73588 
 C                     4.27429   2.45756   2.93276 
 H                     3.19831   0.63943   3.19564 
 C                     4.6662    3.45321   2.0526 
 H                     4.56832   4.16057   0.03275 
 H                     4.61019   2.48388   3.95943 
 H                     5.29713   4.26174   2.39142 
 
 Stoichiometry    C18H25CoN4O4
 Framework group  C1[X(C18H25CoN4O4)]
 Deg. of freedom   150
 Full point group                 C1      NOp   1
 Largest Abelian subgroup         C1      NOp   1
 Largest concise Abelian subgroup C1      NOp   1
                         Standard orientation:                         
 ---------------------------------------------------------------------
 Center     Atomic      Atomic             Coordinates (Angstroms)
 Number     Number       Type             X           Y           Z
 ---------------------------------------------------------------------
      1         27           0        1.364728    0.211513    0.208822
      2          7           0       -0.111377    0.677742    1.283670
      3          8           0       -0.899124   -0.183588    1.986433
      4          6           0       -0.344565    1.947395    1.366558
      5          6           0       -1.433397    2.543730    2.191333
      6          1           0       -1.010092    3.152743    2.988546
      7          1           0       -2.035998    1.750496    2.625673
      8          1           0       -2.061031    3.183096    1.575071
      9          7           0        1.408682    2.063905   -0.122895
     10          8           0        2.267859    2.641295   -0.904925
     11          6           0        0.543162    2.754974    0.565527
     12          6           0        0.455650    4.247151    0.519677
     13          1           0       -0.509829    4.563091    0.128370
     14          1           0        1.243563    4.620691   -0.131379
     15          1           0        0.579482    4.671700    1.514209
     16          7           0        3.000011   -0.195614   -0.615125
     17          8           0        3.734184    0.640248   -1.403331
     18          6           0        3.457409   -1.380532   -0.366346
     19          6           0        4.759369   -1.894670   -0.878418
     20          1           0        4.581189   -2.669412   -1.622289
     21          1           0        5.341136   -2.328760   -0.068834
     22          1           0        5.315730   -1.083317   -1.340174
     23          7           0        1.466394   -1.589680    0.770174
     24          8           0        0.554819   -2.188931    1.471770
     25          6           0        2.574174   -2.190831    0.437012
     26          6           0        2.897659   -3.599064    0.822328
     27          1           0        2.051224   -4.010852    1.368244
     28          1           0        3.780724   -3.633128    1.458637
     29          1           0        3.085810   -4.204745   -0.061824
     30          1           0       -0.438252   -1.102757    1.854509
     31          1           0        3.238938    1.549517   -1.338695
     32          6           0        0.377274   -0.228971   -1.505683
     33          1           0        0.849401    0.415737   -2.246290
     34          1           0        0.622284   -1.278361   -1.668524
     35          6           0       -1.049895    0.002129   -1.385716
     36          6           0       -1.843936   -0.971463   -0.868269
     37          1           0       -1.346370   -1.854211   -0.485755
     38          6           0       -1.564019    1.334301   -1.851705
     39          1           0       -1.815220    1.284721   -2.910661
     40          1           0       -2.449356    1.632702   -1.297412
     41          1           0       -0.793310    2.090767   -1.733424
     42          6           0       -3.279180   -0.969557   -0.670193
     43          6           0       -3.793603   -1.665957    0.431059
     44          6           0       -4.183169   -0.342795   -1.533138
     45          6           0       -5.149551   -1.689869    0.686849
     46          1           0       -3.108811   -2.166313    1.099283
     47          6           0       -5.542510   -0.385339   -1.283253
     48          1           0       -3.825649    0.140597   -2.427028
     49          6           0       -6.031946   -1.045760   -0.167958
     50          1           0       -5.524203   -2.218614    1.551452
     51          1           0       -6.226566    0.097876   -1.966000
     52          1           0       -7.093871   -1.070005    0.027788
 ---------------------------------------------------------------------
 Rotational constants (GHZ):           0.2752521           0.1338998           0.1106547
 General basis read from cards:  (5D, 7F)
 ======================================================================================================
                                       Pseudopotential Parameters
 ======================================================================================================
  Center     Atomic      Valence      Angular      Power
  Number     Number     Electrons     Momentum     of R      Exponent        Coefficient   SO-Coeffient
 ======================================================================================================
    1         27           17
                                      D and up 
                                                     1      434.1076104      -10.00000000    0.00000000
                                                     2       78.8402758      -66.72402760    0.00000000
                                                     2       19.6037749      -11.71922430    0.00000000
                                      S - D
                                                     0      151.2307582        3.00000000    0.00000000
                                                     1      169.6790026       20.15531100    0.00000000
                                                     2       64.9909423      413.37622440    0.00000000
                                                     2       12.5076287      133.87277050    0.00000000
                                      P - D
                                                     0       92.7319924        5.00000000    0.00000000
                                                     1      121.1910183        6.18923530    0.00000000
                                                     2       48.6265909      326.32159190    0.00000000
                                                     2       11.9966971       73.87889700    0.00000000
    2          7
                                   No pseudopotential on this center.
    3          8
                                   No pseudopotential on this center.
    4          6
                                   No pseudopotential on this center.
    5          6
                                   No pseudopotential on this center.
    6          1
                                   No pseudopotential on this center.
    7          1
                                   No pseudopotential on this center.
    8          1
                                   No pseudopotential on this center.
    9          7
                                   No pseudopotential on this center.
   10          8
                                   No pseudopotential on this center.
   11          6
                                   No pseudopotential on this center.
   12          6
                                   No pseudopotential on this center.
   13          1
                                   No pseudopotential on this center.
   14          1
                                   No pseudopotential on this center.
   15          1
                                   No pseudopotential on this center.
   16          7
                                   No pseudopotential on this center.
   17          8
                                   No pseudopotential on this center.
   18          6
                                   No pseudopotential on this center.
   19          6
                                   No pseudopotential on this center.
   20          1
                                   No pseudopotential on this center.
   21          1
                                   No pseudopotential on this center.
   22          1
                                   No pseudopotential on this center.
   23          7
                                   No pseudopotential on this center.
   24          8
                                   No pseudopotential on this center.
   25          6
                                   No pseudopotential on this center.
   26          6
                                   No pseudopotential on this center.
   27          1
                                   No pseudopotential on this center.
   28          1
                                   No pseudopotential on this center.
   29          1
                                   No pseudopotential on this center.
   30          1
                                   No pseudopotential on this center.
   31          1
                                   No pseudopotential on this center.
   32          6
                                   No pseudopotential on this center.
   33          1
                                   No pseudopotential on this center.
   34          1
                                   No pseudopotential on this center.
   35          6
                                   No pseudopotential on this center.
   36          6
                                   No pseudopotential on this center.
   37          1
                                   No pseudopotential on this center.
   38          6
                                   No pseudopotential on this center.
   39          1
                                   No pseudopotential on this center.
   40          1
                                   No pseudopotential on this center.
   41          1
                                   No pseudopotential on this center.
   42          6
                                   No pseudopotential on this center.
   43          6
                                   No pseudopotential on this center.
   44          6
                                   No pseudopotential on this center.
   45          6
                                   No pseudopotential on this center.
   46          1
                                   No pseudopotential on this center.
   47          6
                                   No pseudopotential on this center.
   48          1
                                   No pseudopotential on this center.
   49          6
                                   No pseudopotential on this center.
   50          1
                                   No pseudopotential on this center.
   51          1
                                   No pseudopotential on this center.
   52          1
                                   No pseudopotential on this center.
 ======================================================================================================
 There are   464 symmetry adapted cartesian basis functions of A   symmetry.
 There are   436 symmetry adapted basis functions of A   symmetry.
   436 basis functions,   880 primitive gaussians,   464 cartesian basis functions
   105 alpha electrons      105 beta electrons
       nuclear repulsion energy      3002.5059271426 Hartrees.
 NAtoms=   52 NActive=   52 NUniq=   52 SFac= 1.00D+00 NAtFMM=   60 NAOKFM=F Big=F
 Integral buffers will be    131072 words long.
 Raffenetti 2 integral format.
 Two-electron integral symmetry is turned on.
 Nuclear repulsion after empirical dispersion term =     3002.3814066824 Hartrees.
 ------------------------------------------------------------------------------
 Polarizable Continuum Model (PCM)
 =================================
 Model                : PCM.
 Atomic radii         : SMD-Coulomb.
 Polarization charges : Total charges.
 Charge compensation  : None.
 Solution method      : On-the-fly selection.
 Cavity type          : VdW (van der Waals Surface) (Alpha=1.000).
 Cavity algorithm     : GePol (No added spheres)
                        Default sphere list used, NSphG=   52.
                        Lebedev-Laikov grids with approx.  5.0 points / Ang**2.
                        Smoothing algorithm: York/Karplus (Gamma=1.0000).
                        Polarization charges: spherical gaussians, with
                                              point-specific exponents (IZeta= 3).
                        Self-potential: point-specific (ISelfS= 7).
                        Self-field    : sphere-specific E.n sum rule (ISelfD= 2).
 Solvent              : Acetone, Eps=  20.493000 Eps(inf)=   1.846337
 ------------------------------------------------------------------------------
 ------------------------------------------------------------------------------
 Atomic radii for non-electrostatic terms: SMD-CDS.
 ------------------------------------------------------------------------------
 Nuclear repulsion after PCM non-electrostatic terms =     3002.3749670142 Hartrees.
 One-electron integrals computed using PRISM.
   1 Symmetry operations used in ECPInt.
 ECPInt:  NShTT=   13203 NPrTT=   81964 LenC2=   11346 LenP2D=   39357.
 LDataN:  DoStor=T MaxTD1= 4 Len=   56
 NBasis=   436 RedAO= T EigKep=  4.37D-04  NBF=   436
 NBsUse=   436 1.00D-06 EigRej= -1.00D+00 NBFU=   436
 ExpMin= 2.30D-02 ExpMax= 5.48D+03 ExpMxC= 8.25D+02 IAcc=3 IRadAn=         5 AccDes= 0.00D+00
 Harris functional with IExCor=  402 and IRadAn=       5 diagonalized for initial guess.
 HarFok:  IExCor=  402 AccDes= 0.00D+00 IRadAn=         5 IDoV= 1 UseB2=F ITyADJ=14
 ICtDFT=  3500011 ScaDFX=  1.000000  1.000000  1.000000  1.000000
 FoFCou: FMM=F IPFlag=           0 FMFlag=      100000 FMFlg1=           0
         NFxFlg=           0 DoJE=T BraDBF=F KetDBF=T FulRan=T
         wScrn=  0.000000 ICntrl=       500 IOpCl=  0 I1Cent=   200000004 NGrid=           0
         NMat0=    1 NMatS0=      1 NMatT0=    0 NMatD0=    1 NMtDS0=    0 NMtDT0=    0
 Petite list used in FoFCou.
 Requested convergence on RMS density matrix=1.00D-08 within 128 cycles.
 Requested convergence on MAX density matrix=1.00D-06.
 Requested convergence on             energy=1.00D-06.
 No special actions if energy rises.
 Inv3:  Mode=1 IEnd=    40671372.
 Iteration    1 A*A^-1 deviation from unit magnitude is 3.11D-15 for   2391.
 Iteration    1 A*A^-1 deviation from orthogonality  is 2.88D-15 for   1319    448.
 Iteration    1 A^-1*A deviation from unit magnitude is 3.33D-15 for   2391.
 Iteration    1 A^-1*A deviation from orthogonality  is 2.94D-15 for   1363    449.
 EnCoef did     5 forward-backward iterations
 Restarting incremental Fock formation.
 Error on total polarization charges =  0.04567
 SCF Done:  E(RB3LYP) =  -1365.93223151     A.U. after   21 cycles
            NFock= 21  Conv=0.28D-08     -V/T= 2.0505
 SMD-CDS (non-electrostatic) energy       (kcal/mol) =      -4.04
 (included in total energy above)

 **********************************************************************

            Population analysis using the SCF Density.

 **********************************************************************

 Orbital symmetries:
       Occupied  (A) (A) (A) (A) (A) (A) (A) (A) (A) (A) (A) (A)
                 (A) (A) (A) (A) (A) (A) (A) (A) (A) (A) (A) (A)
                 (A) (A) (A) (A) (A) (A) (A) (A) (A) (A) (A) (A)
                 (A) (A) (A) (A) (A) (A) (A) (A) (A) (A) (A) (A)
                 (A) (A) (A) (A) (A) (A) (A) (A) (A) (A) (A) (A)
                 (A) (A) (A) (A) (A) (A) (A) (A) (A) (A) (A) (A)
                 (A) (A) (A) (A) (A) (A) (A) (A) (A) (A) (A) (A)
                 (A) (A) (A) (A) (A) (A) (A) (A) (A) (A) (A) (A)
                 (A) (A) (A) (A) (A) (A) (A) (A) (A)
       Virtual   (A) (A) (A) (A) (A) (A) (A) (A) (A) (A) (A) (A)
                 (A) (A) (A) (A) (A) (A) (A) (A) (A) (A) (A) (A)
                 (A) (A) (A) (A) (A) (A) (A) (A) (A) (A) (A) (A)
                 (A) (A) (A) (A) (A) (A) (A) (A) (A) (A) (A) (A)
                 (A) (A) (A) (A) (A) (A) (A) (A) (A) (A) (A) (A)
                 (A) (A) (A) (A) (A) (A) (A) (A) (A) (A) (A) (A)
                 (A) (A) (A) (A) (A) (A) (A) (A) (A) (A) (A) (A)
                 (A) (A) (A) (A) (A) (A) (A) (A) (A) (A) (A) (A)
                 (A) (A) (A) (A) (A) (A) (A) (A) (A) (A) (A) (A)
                 (A) (A) (A) (A) (A) (A) (A) (A) (A) (A) (A) (A)
                 (A) (A) (A) (A) (A) (A) (A) (A) (A) (A) (A) (A)
                 (A) (A) (A) (A) (A) (A) (A) (A) (A) (A) (A) (A)
                 (A) (A) (A) (A) (A) (A) (A) (A) (A) (A) (A) (A)
                 (A) (A) (A) (A) (A) (A) (A) (A) (A) (A) (A) (A)
                 (A) (A) (A) (A) (A) (A) (A) (A) (A) (A) (A) (A)
                 (A) (A) (A) (A) (A) (A) (A) (A) (A) (A) (A) (A)
                 (A) (A) (A) (A) (A) (A) (A) (A) (A) (A) (A) (A)
                 (A) (A) (A) (A) (A) (A) (A) (A) (A) (A) (A) (A)
                 (A) (A) (A) (A) (A) (A) (A) (A) (A) (A) (A) (A)
                 (A) (A) (A) (A) (A) (A) (A) (A) (A) (A) (A) (A)
                 (A) (A) (A) (A) (A) (A) (A) (A) (A) (A) (A) (A)
                 (A) (A) (A) (A) (A) (A) (A) (A) (A) (A) (A) (A)
                 (A) (A) (A) (A) (A) (A) (A) (A) (A) (A) (A) (A)
                 (A) (A) (A) (A) (A) (A) (A) (A) (A) (A) (A) (A)
                 (A) (A) (A) (A) (A) (A) (A) (A) (A) (A) (A) (A)
                 (A) (A) (A) (A) (A) (A) (A) (A) (A) (A) (A) (A)
                 (A) (A) (A) (A) (A) (A) (A) (A) (A) (A) (A) (A)
                 (A) (A) (A) (A) (A) (A) (A)
 The electronic state is 1-A.
 Alpha  occ. eigenvalues --  -19.16625 -19.16445 -19.12756 -19.12650 -14.40942
 Alpha  occ. eigenvalues --  -14.40939 -14.40612 -14.40396 -10.23622 -10.23486
 Alpha  occ. eigenvalues --  -10.21406 -10.21328 -10.18488 -10.18428 -10.17515
 Alpha  occ. eigenvalues --  -10.17484 -10.17452 -10.17448 -10.17443 -10.17402
 Alpha  occ. eigenvalues --  -10.17381 -10.17353 -10.16931 -10.16824 -10.16804
 Alpha  occ. eigenvalues --  -10.15842  -3.74417  -2.44450  -2.43641  -2.42578
 Alpha  occ. eigenvalues --   -1.09053  -1.08510  -1.06861  -1.06319  -0.90594
 Alpha  occ. eigenvalues --   -0.89383  -0.85740  -0.81914  -0.80938  -0.80575
 Alpha  occ. eigenvalues --   -0.75290  -0.74635  -0.74178  -0.74169  -0.70649
 Alpha  occ. eigenvalues --   -0.70520  -0.68451  -0.66388  -0.62308  -0.60293
 Alpha  occ. eigenvalues --   -0.60023  -0.58759  -0.54906  -0.53526  -0.52921
 Alpha  occ. eigenvalues --   -0.52082  -0.51288  -0.50841  -0.49461  -0.48981
 Alpha  occ. eigenvalues --   -0.47609  -0.47035  -0.46626  -0.46059  -0.45277
 Alpha  occ. eigenvalues --   -0.44469  -0.43388  -0.42734  -0.42280  -0.42212
 Alpha  occ. eigenvalues --   -0.42005  -0.41829  -0.41551  -0.40967  -0.40547
 Alpha  occ. eigenvalues --   -0.40008  -0.39627  -0.39307  -0.38810  -0.38222
 Alpha  occ. eigenvalues --   -0.38117  -0.38031  -0.37602  -0.37390  -0.36768
 Alpha  occ. eigenvalues --   -0.36523  -0.34966  -0.34300  -0.34227  -0.33186
 Alpha  occ. eigenvalues --   -0.32895  -0.30904  -0.30463  -0.28265  -0.28014
 Alpha  occ. eigenvalues --   -0.27724  -0.26456  -0.26234  -0.25093  -0.25018
 Alpha  occ. eigenvalues --   -0.24897  -0.22368  -0.20155  -0.19786  -0.19463
 Alpha virt. eigenvalues --   -0.09163  -0.03737  -0.03332  -0.00423   0.00285
 Alpha virt. eigenvalues --    0.00527   0.02579   0.02801   0.03357   0.06028
 Alpha virt. eigenvalues --    0.06710   0.06815   0.07841   0.11036   0.12280
 Alpha virt. eigenvalues --    0.12587   0.13632   0.14504   0.14904   0.15044
 Alpha virt. eigenvalues --    0.15087   0.15960   0.16431   0.16780   0.17103
 Alpha virt. eigenvalues --    0.17518   0.17924   0.18364   0.18588   0.18866
 Alpha virt. eigenvalues --    0.19229   0.19511   0.20021   0.20189   0.21521
 Alpha virt. eigenvalues --    0.21884   0.22577   0.23102   0.23840   0.24787
 Alpha virt. eigenvalues --    0.25031   0.25522   0.25807   0.25967   0.26865
 Alpha virt. eigenvalues --    0.27202   0.28294   0.28680   0.29546   0.30167
 Alpha virt. eigenvalues --    0.30883   0.31909   0.32260   0.33205   0.34506
 Alpha virt. eigenvalues --    0.35217   0.36367   0.36636   0.40446   0.41222
 Alpha virt. eigenvalues --    0.42196   0.42652   0.42808   0.44972   0.46893
 Alpha virt. eigenvalues --    0.48251   0.50761   0.51004   0.52062   0.52917
 Alpha virt. eigenvalues --    0.53652   0.54081   0.54887   0.55703   0.56078
 Alpha virt. eigenvalues --    0.56488   0.57454   0.57968   0.58351   0.58538
 Alpha virt. eigenvalues --    0.59491   0.59924   0.60410   0.60491   0.60754
 Alpha virt. eigenvalues --    0.61142   0.61780   0.62324   0.62977   0.63456
 Alpha virt. eigenvalues --    0.64630   0.64932   0.65216   0.66816   0.67514
 Alpha virt. eigenvalues --    0.68275   0.68863   0.69335   0.69974   0.70463
 Alpha virt. eigenvalues --    0.71489   0.72490   0.72859   0.74137   0.74705
 Alpha virt. eigenvalues --    0.75337   0.75862   0.76587   0.77109   0.78333
 Alpha virt. eigenvalues --    0.79015   0.80203   0.81765   0.82206   0.83114
 Alpha virt. eigenvalues --    0.83998   0.84329   0.84584   0.85191   0.85364
 Alpha virt. eigenvalues --    0.85746   0.85798   0.86514   0.86941   0.87489
 Alpha virt. eigenvalues --    0.88040   0.89104   0.89611   0.90278   0.90618
 Alpha virt. eigenvalues --    0.90722   0.91324   0.91479   0.91981   0.92284
 Alpha virt. eigenvalues --    0.93339   0.93823   0.94583   0.95058   0.95536
 Alpha virt. eigenvalues --    0.96282   0.96808   0.97302   0.97536   0.99561
 Alpha virt. eigenvalues --    0.99886   1.00069   1.01104   1.02662   1.02971
 Alpha virt. eigenvalues --    1.03818   1.04290   1.04798   1.05036   1.05546
 Alpha virt. eigenvalues --    1.07232   1.08008   1.09177   1.10059   1.10858
 Alpha virt. eigenvalues --    1.11225   1.12196   1.12719   1.15149   1.15909
 Alpha virt. eigenvalues --    1.16500   1.17892   1.19509   1.21297   1.21762
 Alpha virt. eigenvalues --    1.22393   1.24419   1.24872   1.25919   1.27327
 Alpha virt. eigenvalues --    1.28538   1.29075   1.29521   1.30681   1.32577
 Alpha virt. eigenvalues --    1.33407   1.34295   1.35014   1.35591   1.36929
 Alpha virt. eigenvalues --    1.37089   1.37952   1.38688   1.39013   1.39414
 Alpha virt. eigenvalues --    1.39616   1.41236   1.42162   1.43475   1.44916
 Alpha virt. eigenvalues --    1.45108   1.45950   1.46377   1.48967   1.49941
 Alpha virt. eigenvalues --    1.50665   1.51044   1.51752   1.52538   1.53434
 Alpha virt. eigenvalues --    1.54907   1.59276   1.60974   1.61854   1.63090
 Alpha virt. eigenvalues --    1.66094   1.68622   1.70739   1.74137   1.74567
 Alpha virt. eigenvalues --    1.75282   1.76660   1.77021   1.78070   1.78753
 Alpha virt. eigenvalues --    1.78982   1.79838   1.80121   1.81301   1.81668
 Alpha virt. eigenvalues --    1.82231   1.82621   1.83067   1.83812   1.85585
 Alpha virt. eigenvalues --    1.87154   1.88438   1.89610   1.90117   1.90675
 Alpha virt. eigenvalues --    1.91851   1.92629   1.92791   1.94100   1.95078
 Alpha virt. eigenvalues --    1.96367   1.96556   1.98183   1.99103   1.99725
 Alpha virt. eigenvalues --    2.00094   2.00531   2.01843   2.03118   2.05724
 Alpha virt. eigenvalues --    2.06676   2.09779   2.10276   2.11727   2.12397
 Alpha virt. eigenvalues --    2.13479   2.13801   2.14658   2.15120   2.16146
 Alpha virt. eigenvalues --    2.16793   2.17897   2.19429   2.20112   2.20879
 Alpha virt. eigenvalues --    2.21640   2.23829   2.24216   2.26998   2.28163
 Alpha virt. eigenvalues --    2.28489   2.29495   2.30143   2.31148   2.32153
 Alpha virt. eigenvalues --    2.32946   2.33140   2.33846   2.33966   2.34139
 Alpha virt. eigenvalues --    2.34429   2.35844   2.36649   2.37405   2.39716
 Alpha virt. eigenvalues --    2.39964   2.44938   2.45354   2.46082   2.51399
 Alpha virt. eigenvalues --    2.51917   2.52693   2.53061   2.54614   2.55790
 Alpha virt. eigenvalues --    2.56833   2.57778   2.58077   2.59948   2.60691
 Alpha virt. eigenvalues --    2.64329   2.64621   2.65007   2.65888   2.66273
 Alpha virt. eigenvalues --    2.67882   2.68815   2.71180   2.74806   2.75994
 Alpha virt. eigenvalues --    2.76807   2.77488   2.78486   2.81994   2.85610
 Alpha virt. eigenvalues --    2.87363   2.90905   2.91825   2.93323   2.96311
 Alpha virt. eigenvalues --    3.03064   3.05405   3.05697   3.08428   3.10254
 Alpha virt. eigenvalues --    3.11792   3.21014   3.29647   3.32560   3.46544
 Alpha virt. eigenvalues --   21.76662
          Condensed to atoms (all electrons):
 Mulliken charges:
               1
     1  Co   0.316731
     2  N   -0.173834
     3  O   -0.567399
     4  C    0.328499
     5  C   -0.548236
     6  H    0.202078
     7  H    0.201369
     8  H    0.200230
     9  N   -0.076759
    10  O   -0.559560
    11  C    0.268946
    12  C   -0.549105
    13  H    0.188420
    14  H    0.190556
    15  H    0.187088
    16  N   -0.159147
    17  O   -0.573144
    18  C    0.323610
    19  C   -0.545649
    20  H    0.204717
    21  H    0.199182
    22  H    0.200144
    23  N   -0.077859
    24  O   -0.555363
    25  C    0.270970
    26  C   -0.548141
    27  H    0.190659
    28  H    0.189182
    29  H    0.187383
    30  H    0.473353
    31  H    0.470676
    32  C   -0.403144
    33  H    0.190207
    34  H    0.193801
    35  C    0.232508
    36  C   -0.249355
    37  H    0.151267
    38  C   -0.555898
    39  H    0.180824
    40  H    0.169901
    41  H    0.181025
    42  C    0.144962
    43  C   -0.198347
    44  C   -0.201216
    45  C   -0.156100
    46  H    0.153638
    47  C   -0.158507
    48  H    0.159111
    49  C   -0.151929
    50  H    0.152798
    51  H    0.152604
    52  H    0.152254
 Sum of Mulliken charges =  -0.00000
 Mulliken charges with hydrogens summed into heavy atoms:
               1
     1  Co   0.316731
     2  N   -0.173834
     3  O   -0.094046
     4  C    0.328499
     5  C    0.055441
     9  N   -0.076759
    10  O   -0.559560
    11  C    0.268946
    12  C    0.016958
    16  N   -0.159147
    17  O   -0.102468
    18  C    0.323610
    19  C    0.058394
    23  N   -0.077859
    24  O   -0.555363
    25  C    0.270970
    26  C    0.019084
    32  C   -0.019136
    35  C    0.232508
    36  C   -0.098088
    38  C   -0.024147
    42  C    0.144962
    43  C   -0.044709
    44  C   -0.042105
    45  C   -0.003302
    47  C   -0.005904
    49  C    0.000325
 Electronic spatial extent (au):  <R**2>=          10290.1091
 Charge=              0.0000 electrons
 Dipole moment (field-independent basis, Debye):
    X=              0.0952    Y=              0.3629    Z=              0.7652  Tot=              0.8522
 Quadrupole moment (field-independent basis, Debye-Ang):
   XX=           -151.3836   YY=           -155.4593   ZZ=           -165.2054
   XY=            -23.1819   XZ=              4.9249   YZ=              9.4257
 Traceless Quadrupole moment (field-independent basis, Debye-Ang):
   XX=              5.9658   YY=              1.8901   ZZ=             -7.8559
   XY=            -23.1819   XZ=              4.9249   YZ=              9.4257
 Octapole moment (field-independent basis, Debye-Ang**2):
  XXX=             46.3888  YYY=             26.4890  ZZZ=              9.8464  XYY=             36.5781
  XXY=            -66.1317  XXZ=             21.3424  XZZ=              9.9773  YZZ=             19.7247
  YYZ=             30.6918  XYZ=             27.6677
 Hexadecapole moment (field-independent basis, Debye-Ang**3):
 XXXX=          -7723.2177 YYYY=          -3520.0399 ZZZZ=          -1507.3493 XXXY=           -241.0758
 XXXZ=             23.2528 YYYX=           -177.2460 YYYZ=             81.6062 ZZZX=             -8.1716
 ZZZY=              2.1252 XXYY=          -1957.3342 XXZZ=          -1635.7428 YYZZ=           -833.9719
 XXYZ=            -65.5032 YYXZ=            -51.0991 ZZXY=            -25.8802
 N-N= 3.002374967014D+03 E-N=-9.196343894140D+03  KE= 1.300229161740D+03
 Unable to Open any file for archive entry.
 1\1\GINC-N204\SP\RB3LYP\GenECP\C18H25Co1N4O4\CJD\02-Mar-2023\0\\# B3LY
 P/genecp em=GD3BJ int=fine scrf=(smd,solvent=acetone)\\Template\\0,1\C
 o,0,-1.0669162737,-0.6420999096,-0.5537939511\N,0,-0.8058918918,1.1900
 650661,-0.1979983752\O,0,0.0550886232,2.0215555471,-0.8488813186\C,0,-
 1.559804273,1.676063455,0.7340348274\C,0,-1.5520762893,3.1065351003,1.
 1525028746\H,0,-2.512589156,3.5683319905,0.9293654146\H,0,-0.765940023
 9,3.6361893606,0.6210380001\H,0,-1.3824442681,3.1811117745,2.224022904
 8\N,0,-2.2600017788,-0.512380351,0.8963940606\O,0,-2.9442058114,-1.509
 9977957,1.3651785236\C,0,-2.4145714895,0.696627361,1.3601118775\C,0,-3
 .371714947,1.043594543,2.4554862701\H,0,-2.8386889396,1.427784464,3.32
 3455574\H,0,-3.9139941498,0.1439645881,2.7397630205\H,0,-4.0798795303,
 1.8006271983,2.1237138832\N,0,-1.5554719337,-2.3742235664,-1.082803932
 7\O,0,-2.3356914943,-3.2413480066,-0.3769023\C,0,-1.1157258698,-2.7352
 048262,-2.2453234935\C,0,-1.4223611775,-4.0483965692,-2.8802697587\H,0
 ,-0.5226729946,-4.66075611,-2.9101718268\H,0,-1.7694652271,-3.90500829
 21,-3.9006967059\H,0,-2.1820971611,-4.5654714742,-2.3001960287\N,0,-0.
 0800395983,-0.6808479503,-2.1644840515\O,0,0.6799920335,0.2849219486,-
 2.5791488989\C,0,-0.2627482548,-1.7574512655,-2.8765924797\C,0,0.37060
 14755,-1.9811514884,-4.212653179\H,0,1.0122797838,-1.1315367964,-4.437
 2591877\H,0,-0.3867555296,-2.0690898945,-4.9901692443\H,0,0.9664457192
 ,-2.8915965848,-4.2067256601\H,0,0.4380753749,1.432399095,-1.611045583
 7\H,0,-2.6670874037,-2.6829497688,0.4321619663\C,0,0.4488948551,-1.396
 778748,0.5603841116\H,0,-0.0477386817,-2.105384214,1.222415326\H,0,1.0
 704084448,-1.9017275384,-0.1788833037\C,0,1.1634054908,-0.3593006975,1
 .2799139618\C,0,2.1684466264,0.3133301267,0.6605624234\H,0,2.328940439
 ,0.0929280583,-0.3876726354\C,0,0.7319011492,-0.0925419846,2.693701285
 2\H,0,1.2849404576,-0.7355967019,3.3774966773\H,0,0.9060674464,0.94301
 51222,2.9718971603\H,0,-0.3233749662,-0.3235850914,2.8087547519\C,0,3.
 0197370969,1.3640754112,1.1805653787\C,0,3.4572118223,2.3570877416,0.2
 946185451\C,0,3.4584941077,1.4256053313,2.5066145661\C,0,4.2559903456,
 3.3953917033,0.7287541142\H,0,3.1375625389,2.3157258462,-0.735883614\C
 ,0,4.2742868633,2.4575635217,2.93276489\H,0,3.198307827,0.6394316815,3
 .1956444454\C,0,4.6662013184,3.4532064204,2.0526031687\H,0,4.568317882
 4,4.1605716703,0.0327482963\H,0,4.6101900691,2.4838799079,3.9594339613
 \H,0,5.2971250014,4.261742851,2.391416194\\Version=ES64L-G16RevC.01\St
 ate=1-A\HF=-1365.9322315\RMSD=2.844e-09\Dipole=-0.2241959,0.2322843,-0
 .0905644\Quadrupole=-8.5524948,2.1564403,6.3960545,-7.1048203,4.868061
 3,15.9348562\PG=C01 [X(C18H25Co1N4O4)]\\@
 The archive entry for this job was punched.


 KNOWING HOW CONTENTED, FREE, AND JOYFUL IS LIFE IN
 THE REALMS OF SCIENCE, ONE FERVENTLY WISHES THAT
 MANY WOULD ENTER HER PORTALS.
   --  DMITRI IVANOVICH MENDELEEV
 "FIRST PRINCIPLES OF CHEMISTRY", LONGMANS, GREEN,
 AND CO.  LONDON, 1891
 Job cpu time:       0 days  0 hours 19 minutes 54.0 seconds.
 Elapsed time:       0 days  0 hours  1 minutes 16.5 seconds.
 File lengths (MBytes):  RWF=    330 Int=      0 D2E=      0 Chk=     14 Scr=      1
 Normal termination of Gaussian 16 at Thu Mar  2 08:33:16 2023.
