 Entering Gaussian System, Link 0=g16
 Initial command:
 /opt/local/g16/l1.exe "/data/tmp/cjd/Gau-59900.inp" -scrdir="/data/tmp/cjd/"
 Entering Link 1 = /opt/local/g16/l1.exe PID=     59901.
  
 Copyright (c) 1988-2019, Gaussian, Inc.  All Rights Reserved.
  
 This is part of the Gaussian(R) 16 program.  It is based on
 the Gaussian(R) 09 system (copyright 2009, Gaussian, Inc.),
 the Gaussian(R) 03 system (copyright 2003, Gaussian, Inc.),
 the Gaussian(R) 98 system (copyright 1998, Gaussian, Inc.),
 the Gaussian(R) 94 system (copyright 1995, Gaussian, Inc.),
 the Gaussian 92(TM) system (copyright 1992, Gaussian, Inc.),
 the Gaussian 90(TM) system (copyright 1990, Gaussian, Inc.),
 the Gaussian 88(TM) system (copyright 1988, Gaussian, Inc.),
 the Gaussian 86(TM) system (copyright 1986, Carnegie Mellon
 University), and the Gaussian 82(TM) system (copyright 1983,
 Carnegie Mellon University). Gaussian is a federally registered
 trademark of Gaussian, Inc.
  
 This software contains proprietary and confidential information,
 including trade secrets, belonging to Gaussian, Inc.
  
 This software is provided under written license and may be
 used, copied, transmitted, or stored only in accord with that
 written license.
  
 The following legend is applicable only to US Government
 contracts under FAR:
  
                    RESTRICTED RIGHTS LEGEND
  
 Use, reproduction and disclosure by the US Government is
 subject to restrictions as set forth in subparagraphs (a)
 and (c) of the Commercial Computer Software - Restricted
 Rights clause in FAR 52.227-19.
  
 Gaussian, Inc.
 340 Quinnipiac St., Bldg. 40, Wallingford CT 06492
  
  
 ---------------------------------------------------------------
 Warning -- This program may not be used in any manner that
 competes with the business of Gaussian, Inc. or will provide
 assistance to any competitor of Gaussian, Inc.  The licensee
 of this program is prohibited from giving any competitor of
 Gaussian, Inc. access to this program.  By using this program,
 the user acknowledges that Gaussian, Inc. is engaged in the
 business of creating and licensing software in the field of
 computational chemistry and represents and warrants to the
 licensee that it is not a competitor of Gaussian, Inc. and that
 it will not use this program in any manner prohibited above.
 ---------------------------------------------------------------
  

 Cite this work as:
 Gaussian 16, Revision C.01,
 M. J. Frisch, G. W. Trucks, H. B. Schlegel, G. E. Scuseria, 
 M. A. Robb, J. R. Cheeseman, G. Scalmani, V. Barone, 
 G. A. Petersson, H. Nakatsuji, X. Li, M. Caricato, A. V. Marenich, 
 J. Bloino, B. G. Janesko, R. Gomperts, B. Mennucci, H. P. Hratchian, 
 J. V. Ortiz, A. F. Izmaylov, J. L. Sonnenberg, D. Williams-Young, 
 F. Ding, F. Lipparini, F. Egidi, J. Goings, B. Peng, A. Petrone, 
 T. Henderson, D. Ranasinghe, V. G. Zakrzewski, J. Gao, N. Rega, 
 G. Zheng, W. Liang, M. Hada, M. Ehara, K. Toyota, R. Fukuda, 
 J. Hasegawa, M. Ishida, T. Nakajima, Y. Honda, O. Kitao, H. Nakai, 
 T. Vreven, K. Throssell, J. A. Montgomery, Jr., J. E. Peralta, 
 F. Ogliaro, M. J. Bearpark, J. J. Heyd, E. N. Brothers, K. N. Kudin, 
 V. N. Staroverov, T. A. Keith, R. Kobayashi, J. Normand, 
 K. Raghavachari, A. P. Rendell, J. C. Burant, S. S. Iyengar, 
 J. Tomasi, M. Cossi, J. M. Millam, M. Klene, C. Adamo, R. Cammi, 
 J. W. Ochterski, R. L. Martin, K. Morokuma, O. Farkas, 
 J. B. Foresman, and D. J. Fox, Gaussian, Inc., Wallingford CT, 2019.
 
 ******************************************
 Gaussian 16:  ES64L-G16RevC.01  3-Jul-2019
                 2-Mar-2023 
 ******************************************
 %nproc=16
 Will use up to   16 processors via shared memory.
 %mem=60GB
 -----------------------------------------------------------
 # B3LYP/genecp em=GD3BJ int=fine scrf=(smd,solvent=acetone)
 -----------------------------------------------------------
 1/38=1,172=1/1;
 2/12=2,17=6,18=5,40=1/2;
 3/5=7,11=2,16=1,17=8,25=1,30=1,70=32201,72=19,74=-5,75=-4,124=41/1,2,3;
 4//1;
 5/5=2,38=5,53=19/2;
 6/7=2,8=2,9=2,10=2,28=1/1;
 99/5=1,9=1/99;
 --------
 Template
 --------
 Symbolic Z-matrix:
 Charge =  0 Multiplicity = 1
 Co                   -1.32552  -0.23748  -0.24433 
 N                    -2.37953   1.30506  -0.39978 
 O                    -2.03398   2.45842  -1.03987 
 C                    -3.54817   1.22344   0.15224 
 C                    -4.56157   2.31595   0.12138 
 H                    -5.5255    1.92986  -0.20143 
 H                    -4.23195   3.10075  -0.55454 
 H                    -4.68094   2.73494   1.11929 
 N                    -2.76884  -0.84412   0.79371 
 O                    -2.81021  -2.00804   1.35607 
 C                    -3.78383  -0.02627   0.83177 
 C                    -5.06859  -0.33909   1.52991 
 H                    -5.89388  -0.38497   0.8208 
 H                    -5.29469   0.42131   2.27448 
 H                    -4.9684   -1.3055    2.01966 
 N                    -0.38613  -1.86646  -0.29369 
 O                    -0.60587  -2.94779   0.5125 
 C                     0.54714  -1.93618  -1.18729 
 C                     1.40014  -3.13782  -1.40912 
 H                     1.42307  -3.39798  -2.46477 
 H                     1.01358  -3.97305  -0.8308 
 H                     2.41933  -2.92552  -1.08946 
 N                    -0.04633   0.25642  -1.55454 
 O                     0.01422   1.426    -2.11531 
 C                     0.72771  -0.71953  -1.93907 
 C                     1.73869  -0.59134  -3.03317 
 H                     1.73023   0.43499  -3.39426 
 H                     1.49941  -1.25915  -3.85974 
 H                     2.73323  -0.83723  -2.667 
 H                    -1.16081   2.21521  -1.54138 
 H                    -1.49879  -2.73029   0.98113 
 C                    -0.40038   0.38023   1.44624 
 H                    -1.07019   1.12984   1.86545 
 H                    -0.37978  -0.52138   2.05736 
 C                     0.91978   0.89972   1.14471 
 C                     1.98936   0.06433   1.2361 
 H                     1.78623  -0.94234   1.5829 
 C                     1.02786   2.35959   0.81753 
 H                     1.96066   2.77344   1.19105 
 H                     0.9854    2.5132   -0.26003 
 H                     0.19508   2.90404   1.25501 
 C                     3.39172   0.32489   0.99285 
 C                     3.86522   1.27989   0.08651 
 C                     4.33587  -0.45807   1.67287 
 C                     5.2226    1.46049  -0.10407 
 H                     3.17017   1.85092  -0.50479 
 C                     5.68976  -0.26423   1.49087 
 H                     3.98959  -1.21412   2.36317 
 C                     6.14128   0.70215   0.60384 
 H                     5.56719   2.19828  -0.81429 
 H                     6.39871  -0.87028   2.03622 
 H                     7.20048   0.85341   0.45729 
 
 Stoichiometry    C18H25CoN4O4
 Framework group  C1[X(C18H25CoN4O4)]
 Deg. of freedom   150
 Full point group                 C1      NOp   1
 Largest Abelian subgroup         C1      NOp   1
 Largest concise Abelian subgroup C1      NOp   1
                         Standard orientation:                         
 ---------------------------------------------------------------------
 Center     Atomic      Atomic             Coordinates (Angstroms)
 Number     Number       Type             X           Y           Z
 ---------------------------------------------------------------------
      1         27           0       -1.351152    0.273949    0.256027
      2          7           0       -2.419451   -1.250710    0.476641
      3          8           0       -2.079141   -2.384491    1.153465
      4          6           0       -3.592980   -1.175980   -0.065901
      5          6           0       -4.617316   -2.255738    0.013904
      6          1           0       -5.573689   -1.848160    0.332753
      7          1           0       -4.288709   -3.019776    0.713681
      8          1           0       -4.751644   -2.708274   -0.967323
      9          7           0       -2.799033    0.859214   -0.787924
     10          8           0       -2.834263    2.003002   -1.390566
     11          6           0       -3.822832    0.051514   -0.786668
     12          6           0       -5.111612    0.353399   -1.482207
     13          1           0       -5.928789    0.433098   -0.766729
     14          1           0       -5.353519   -0.430249   -2.197112
     15          1           0       -5.006579    1.300846   -2.006769
     16          7           0       -0.394377    1.893442    0.238208
     17          8           0       -0.611410    2.948035   -0.603352
     18          6           0        0.549007    1.984504    1.119174
     19          6           0        1.416780    3.183939    1.289689
     20          1           0        1.453644    3.480826    2.335203
     21          1           0        1.032816    4.002417    0.686236
     22          1           0        2.430251    2.949547    0.967285
     23          7           0       -0.063313   -0.187292    1.569666
     24          8           0       -0.008988   -1.336997    2.170727
     25          6           0        0.724890    0.793181    1.911540
     26          6           0        1.746051    0.692683    2.999057
     27          1           0        1.730746   -0.320154    3.396221
     28          1           0        1.522537    1.391713    3.803950
     29          1           0        2.739149    0.914809    2.614254
     30          1           0       -1.198200   -2.133206    1.637097
     31          1           0       -1.511476    2.723818   -1.054822
     32          6           0       -0.450518   -0.412799   -1.421086
     33          1           0       -1.132508   -1.169436   -1.806682
     34          1           0       -0.427031    0.466468   -2.063829
     35          6           0        0.867294   -0.935559   -1.114958
     36          6           0        1.944478   -0.115476   -1.246756
     37          1           0        1.748171    0.880497   -1.626770
     38          6           0        0.963641   -2.384091   -0.737578
     39          1           0        1.888057   -2.820855   -1.105801
     40          1           0        0.931050   -2.499217    0.345118
     41          1           0        0.120633   -2.934595   -1.147001
     42          6           0        3.346562   -0.382422   -1.008856
     43          6           0        3.819706   -1.309983   -0.074268
     44          6           0        4.291528    0.365910   -1.725740
     45          6           0        5.177081   -1.498376    0.108635
     46          1           0        3.125073   -1.852326    0.543913
     47          6           0        5.645181    0.164008   -1.550905
     48          1           0        3.945814    1.100882   -2.438711
     49          6           0        6.096022   -0.775366   -0.634992
     50          1           0        5.521495   -2.214389    0.840880
     51          1           0        6.354565    0.742812   -2.124550
     52          1           0        7.155087   -0.932781   -0.494067
 ---------------------------------------------------------------------
 Rotational constants (GHZ):           0.3257119           0.1203343           0.1125309
 General basis read from cards:  (5D, 7F)
 ======================================================================================================
                                       Pseudopotential Parameters
 ======================================================================================================
  Center     Atomic      Valence      Angular      Power
  Number     Number     Electrons     Momentum     of R      Exponent        Coefficient   SO-Coeffient
 ======================================================================================================
    1         27           17
                                      D and up 
                                                     1      434.1076104      -10.00000000    0.00000000
                                                     2       78.8402758      -66.72402760    0.00000000
                                                     2       19.6037749      -11.71922430    0.00000000
                                      S - D
                                                     0      151.2307582        3.00000000    0.00000000
                                                     1      169.6790026       20.15531100    0.00000000
                                                     2       64.9909423      413.37622440    0.00000000
                                                     2       12.5076287      133.87277050    0.00000000
                                      P - D
                                                     0       92.7319924        5.00000000    0.00000000
                                                     1      121.1910183        6.18923530    0.00000000
                                                     2       48.6265909      326.32159190    0.00000000
                                                     2       11.9966971       73.87889700    0.00000000
    2          7
                                   No pseudopotential on this center.
    3          8
                                   No pseudopotential on this center.
    4          6
                                   No pseudopotential on this center.
    5          6
                                   No pseudopotential on this center.
    6          1
                                   No pseudopotential on this center.
    7          1
                                   No pseudopotential on this center.
    8          1
                                   No pseudopotential on this center.
    9          7
                                   No pseudopotential on this center.
   10          8
                                   No pseudopotential on this center.
   11          6
                                   No pseudopotential on this center.
   12          6
                                   No pseudopotential on this center.
   13          1
                                   No pseudopotential on this center.
   14          1
                                   No pseudopotential on this center.
   15          1
                                   No pseudopotential on this center.
   16          7
                                   No pseudopotential on this center.
   17          8
                                   No pseudopotential on this center.
   18          6
                                   No pseudopotential on this center.
   19          6
                                   No pseudopotential on this center.
   20          1
                                   No pseudopotential on this center.
   21          1
                                   No pseudopotential on this center.
   22          1
                                   No pseudopotential on this center.
   23          7
                                   No pseudopotential on this center.
   24          8
                                   No pseudopotential on this center.
   25          6
                                   No pseudopotential on this center.
   26          6
                                   No pseudopotential on this center.
   27          1
                                   No pseudopotential on this center.
   28          1
                                   No pseudopotential on this center.
   29          1
                                   No pseudopotential on this center.
   30          1
                                   No pseudopotential on this center.
   31          1
                                   No pseudopotential on this center.
   32          6
                                   No pseudopotential on this center.
   33          1
                                   No pseudopotential on this center.
   34          1
                                   No pseudopotential on this center.
   35          6
                                   No pseudopotential on this center.
   36          6
                                   No pseudopotential on this center.
   37          1
                                   No pseudopotential on this center.
   38          6
                                   No pseudopotential on this center.
   39          1
                                   No pseudopotential on this center.
   40          1
                                   No pseudopotential on this center.
   41          1
                                   No pseudopotential on this center.
   42          6
                                   No pseudopotential on this center.
   43          6
                                   No pseudopotential on this center.
   44          6
                                   No pseudopotential on this center.
   45          6
                                   No pseudopotential on this center.
   46          1
                                   No pseudopotential on this center.
   47          6
                                   No pseudopotential on this center.
   48          1
                                   No pseudopotential on this center.
   49          6
                                   No pseudopotential on this center.
   50          1
                                   No pseudopotential on this center.
   51          1
                                   No pseudopotential on this center.
   52          1
                                   No pseudopotential on this center.
 ======================================================================================================
 There are   464 symmetry adapted cartesian basis functions of A   symmetry.
 There are   436 symmetry adapted basis functions of A   symmetry.
   436 basis functions,   880 primitive gaussians,   464 cartesian basis functions
   105 alpha electrons      105 beta electrons
       nuclear repulsion energy      3005.5903984856 Hartrees.
 NAtoms=   52 NActive=   52 NUniq=   52 SFac= 1.00D+00 NAtFMM=   60 NAOKFM=F Big=F
 Integral buffers will be    131072 words long.
 Raffenetti 2 integral format.
 Two-electron integral symmetry is turned on.
 Nuclear repulsion after empirical dispersion term =     3005.4657977159 Hartrees.
 ------------------------------------------------------------------------------
 Polarizable Continuum Model (PCM)
 =================================
 Model                : PCM.
 Atomic radii         : SMD-Coulomb.
 Polarization charges : Total charges.
 Charge compensation  : None.
 Solution method      : On-the-fly selection.
 Cavity type          : VdW (van der Waals Surface) (Alpha=1.000).
 Cavity algorithm     : GePol (No added spheres)
                        Default sphere list used, NSphG=   52.
                        Lebedev-Laikov grids with approx.  5.0 points / Ang**2.
                        Smoothing algorithm: York/Karplus (Gamma=1.0000).
                        Polarization charges: spherical gaussians, with
                                              point-specific exponents (IZeta= 3).
                        Self-potential: point-specific (ISelfS= 7).
                        Self-field    : sphere-specific E.n sum rule (ISelfD= 2).
 Solvent              : Acetone, Eps=  20.493000 Eps(inf)=   1.846337
 ------------------------------------------------------------------------------
 ------------------------------------------------------------------------------
 Atomic radii for non-electrostatic terms: SMD-CDS.
 ------------------------------------------------------------------------------
 Nuclear repulsion after PCM non-electrostatic terms =     3005.4592918261 Hartrees.
 One-electron integrals computed using PRISM.
   1 Symmetry operations used in ECPInt.
 ECPInt:  NShTT=   13203 NPrTT=   81964 LenC2=   11378 LenP2D=   39367.
 LDataN:  DoStor=T MaxTD1= 4 Len=   56
 NBasis=   436 RedAO= T EigKep=  4.34D-04  NBF=   436
 NBsUse=   436 1.00D-06 EigRej= -1.00D+00 NBFU=   436
 ExpMin= 2.30D-02 ExpMax= 5.48D+03 ExpMxC= 8.25D+02 IAcc=3 IRadAn=         5 AccDes= 0.00D+00
 Harris functional with IExCor=  402 and IRadAn=       5 diagonalized for initial guess.
 HarFok:  IExCor=  402 AccDes= 0.00D+00 IRadAn=         5 IDoV= 1 UseB2=F ITyADJ=14
 ICtDFT=  3500011 ScaDFX=  1.000000  1.000000  1.000000  1.000000
 FoFCou: FMM=F IPFlag=           0 FMFlag=      100000 FMFlg1=           0
         NFxFlg=           0 DoJE=T BraDBF=F KetDBF=T FulRan=T
         wScrn=  0.000000 ICntrl=       500 IOpCl=  0 I1Cent=   200000004 NGrid=           0
         NMat0=    1 NMatS0=      1 NMatT0=    0 NMatD0=    1 NMtDS0=    0 NMtDT0=    0
 Petite list used in FoFCou.
 Requested convergence on RMS density matrix=1.00D-08 within 128 cycles.
 Requested convergence on MAX density matrix=1.00D-06.
 Requested convergence on             energy=1.00D-06.
 No special actions if energy rises.
 Inv3:  Mode=1 IEnd=    40981248.
 Iteration    1 A*A^-1 deviation from unit magnitude is 3.11D-15 for   1634.
 Iteration    1 A*A^-1 deviation from orthogonality  is 2.44D-15 for   1910    799.
 Iteration    1 A^-1*A deviation from unit magnitude is 3.11D-15 for   1634.
 Iteration    1 A^-1*A deviation from orthogonality  is 2.21D-15 for    998     30.
 EnCoef did     5 forward-backward iterations
 Error on total polarization charges =  0.04480
 SCF Done:  E(RB3LYP) =  -1365.93365941     A.U. after   20 cycles
            NFock= 20  Conv=0.67D-08     -V/T= 2.0505
 SMD-CDS (non-electrostatic) energy       (kcal/mol) =      -4.08
 (included in total energy above)

 **********************************************************************

            Population analysis using the SCF Density.

 **********************************************************************

 Orbital symmetries:
       Occupied  (A) (A) (A) (A) (A) (A) (A) (A) (A) (A) (A) (A)
                 (A) (A) (A) (A) (A) (A) (A) (A) (A) (A) (A) (A)
                 (A) (A) (A) (A) (A) (A) (A) (A) (A) (A) (A) (A)
                 (A) (A) (A) (A) (A) (A) (A) (A) (A) (A) (A) (A)
                 (A) (A) (A) (A) (A) (A) (A) (A) (A) (A) (A) (A)
                 (A) (A) (A) (A) (A) (A) (A) (A) (A) (A) (A) (A)
                 (A) (A) (A) (A) (A) (A) (A) (A) (A) (A) (A) (A)
                 (A) (A) (A) (A) (A) (A) (A) (A) (A) (A) (A) (A)
                 (A) (A) (A) (A) (A) (A) (A) (A) (A)
       Virtual   (A) (A) (A) (A) (A) (A) (A) (A) (A) (A) (A) (A)
                 (A) (A) (A) (A) (A) (A) (A) (A) (A) (A) (A) (A)
                 (A) (A) (A) (A) (A) (A) (A) (A) (A) (A) (A) (A)
                 (A) (A) (A) (A) (A) (A) (A) (A) (A) (A) (A) (A)
                 (A) (A) (A) (A) (A) (A) (A) (A) (A) (A) (A) (A)
                 (A) (A) (A) (A) (A) (A) (A) (A) (A) (A) (A) (A)
                 (A) (A) (A) (A) (A) (A) (A) (A) (A) (A) (A) (A)
                 (A) (A) (A) (A) (A) (A) (A) (A) (A) (A) (A) (A)
                 (A) (A) (A) (A) (A) (A) (A) (A) (A) (A) (A) (A)
                 (A) (A) (A) (A) (A) (A) (A) (A) (A) (A) (A) (A)
                 (A) (A) (A) (A) (A) (A) (A) (A) (A) (A) (A) (A)
                 (A) (A) (A) (A) (A) (A) (A) (A) (A) (A) (A) (A)
                 (A) (A) (A) (A) (A) (A) (A) (A) (A) (A) (A) (A)
                 (A) (A) (A) (A) (A) (A) (A) (A) (A) (A) (A) (A)
                 (A) (A) (A) (A) (A) (A) (A) (A) (A) (A) (A) (A)
                 (A) (A) (A) (A) (A) (A) (A) (A) (A) (A) (A) (A)
                 (A) (A) (A) (A) (A) (A) (A) (A) (A) (A) (A) (A)
                 (A) (A) (A) (A) (A) (A) (A) (A) (A) (A) (A) (A)
                 (A) (A) (A) (A) (A) (A) (A) (A) (A) (A) (A) (A)
                 (A) (A) (A) (A) (A) (A) (A) (A) (A) (A) (A) (A)
                 (A) (A) (A) (A) (A) (A) (A) (A) (A) (A) (A) (A)
                 (A) (A) (A) (A) (A) (A) (A) (A) (A) (A) (A) (A)
                 (A) (A) (A) (A) (A) (A) (A) (A) (A) (A) (A) (A)
                 (A) (A) (A) (A) (A) (A) (A) (A) (A) (A) (A) (A)
                 (A) (A) (A) (A) (A) (A) (A) (A) (A) (A) (A) (A)
                 (A) (A) (A) (A) (A) (A) (A) (A) (A) (A) (A) (A)
                 (A) (A) (A) (A) (A) (A) (A) (A) (A) (A) (A) (A)
                 (A) (A) (A) (A) (A) (A) (A)
 The electronic state is 1-A.
 Alpha  occ. eigenvalues --  -19.16730 -19.16614 -19.12821 -19.12803 -14.41192
 Alpha  occ. eigenvalues --  -14.40860 -14.40547 -14.40490 -10.23673 -10.23570
 Alpha  occ. eigenvalues --  -10.21341 -10.21250 -10.18694 -10.18545 -10.17630
 Alpha  occ. eigenvalues --  -10.17601 -10.17567 -10.17531 -10.17494 -10.17474
 Alpha  occ. eigenvalues --  -10.17464 -10.17422 -10.17120 -10.16835 -10.16758
 Alpha  occ. eigenvalues --  -10.15411  -3.74538  -2.44578  -2.43753  -2.42701
 Alpha  occ. eigenvalues --   -1.09102  -1.08553  -1.07024  -1.06425  -0.90645
 Alpha  occ. eigenvalues --   -0.89465  -0.85861  -0.81930  -0.80999  -0.80632
 Alpha  occ. eigenvalues --   -0.75390  -0.74670  -0.74284  -0.74212  -0.70657
 Alpha  occ. eigenvalues --   -0.70523  -0.68370  -0.66430  -0.62339  -0.60357
 Alpha  occ. eigenvalues --   -0.60149  -0.58865  -0.54930  -0.53630  -0.53007
 Alpha  occ. eigenvalues --   -0.52136  -0.51392  -0.50918  -0.49436  -0.49077
 Alpha  occ. eigenvalues --   -0.47732  -0.46923  -0.46687  -0.46032  -0.45658
 Alpha  occ. eigenvalues --   -0.44567  -0.43386  -0.42769  -0.42478  -0.42276
 Alpha  occ. eigenvalues --   -0.42097  -0.41957  -0.41408  -0.40871  -0.40610
 Alpha  occ. eigenvalues --   -0.40157  -0.39534  -0.38970  -0.38870  -0.38167
 Alpha  occ. eigenvalues --   -0.38058  -0.37886  -0.37592  -0.37360  -0.36809
 Alpha  occ. eigenvalues --   -0.36419  -0.34762  -0.34627  -0.34303  -0.33431
 Alpha  occ. eigenvalues --   -0.33132  -0.30998  -0.30631  -0.28306  -0.27936
 Alpha  occ. eigenvalues --   -0.27732  -0.26902  -0.26419  -0.25223  -0.25094
 Alpha  occ. eigenvalues --   -0.25052  -0.22466  -0.20348  -0.19795  -0.19388
 Alpha virt. eigenvalues --   -0.09385  -0.03878  -0.03347  -0.00490   0.00190
 Alpha virt. eigenvalues --    0.00383   0.02631   0.02815   0.03249   0.06532
 Alpha virt. eigenvalues --    0.06649   0.06981   0.07831   0.11146   0.12467
 Alpha virt. eigenvalues --    0.12788   0.13366   0.14378   0.14837   0.14969
 Alpha virt. eigenvalues --    0.15476   0.15793   0.16443   0.16847   0.17255
 Alpha virt. eigenvalues --    0.17470   0.17690   0.18146   0.18496   0.18691
 Alpha virt. eigenvalues --    0.19240   0.19611   0.20276   0.20385   0.20602
 Alpha virt. eigenvalues --    0.21959   0.22886   0.23353   0.23992   0.24773
 Alpha virt. eigenvalues --    0.24837   0.24933   0.25913   0.26405   0.26949
 Alpha virt. eigenvalues --    0.27702   0.27969   0.28880   0.29721   0.29971
 Alpha virt. eigenvalues --    0.30260   0.31621   0.32190   0.33960   0.34587
 Alpha virt. eigenvalues --    0.35235   0.35978   0.36680   0.40105   0.41180
 Alpha virt. eigenvalues --    0.42081   0.42616   0.42971   0.44664   0.46869
 Alpha virt. eigenvalues --    0.48663   0.49499   0.51006   0.51866   0.52990
 Alpha virt. eigenvalues --    0.53833   0.54037   0.55206   0.55611   0.55823
 Alpha virt. eigenvalues --    0.56148   0.57188   0.57319   0.58224   0.58387
 Alpha virt. eigenvalues --    0.59097   0.59768   0.60285   0.60363   0.60745
 Alpha virt. eigenvalues --    0.61582   0.61765   0.62595   0.63162   0.63729
 Alpha virt. eigenvalues --    0.64162   0.65319   0.66110   0.66718   0.67726
 Alpha virt. eigenvalues --    0.68771   0.68953   0.69323   0.69715   0.70317
 Alpha virt. eigenvalues --    0.70779   0.71261   0.72520   0.73947   0.74673
 Alpha virt. eigenvalues --    0.75482   0.75608   0.76139   0.77095   0.78460
 Alpha virt. eigenvalues --    0.79687   0.80932   0.81931   0.82546   0.83589
 Alpha virt. eigenvalues --    0.83827   0.84094   0.84793   0.85066   0.85350
 Alpha virt. eigenvalues --    0.85585   0.86143   0.86880   0.87392   0.87908
 Alpha virt. eigenvalues --    0.88179   0.88858   0.89520   0.90003   0.90565
 Alpha virt. eigenvalues --    0.90653   0.91480   0.92017   0.92318   0.93143
 Alpha virt. eigenvalues --    0.93259   0.93740   0.94418   0.94554   0.95522
 Alpha virt. eigenvalues --    0.95945   0.96277   0.97147   0.97806   0.98207
 Alpha virt. eigenvalues --    0.99105   1.01039   1.01510   1.02331   1.02458
 Alpha virt. eigenvalues --    1.03249   1.03746   1.04498   1.05644   1.05789
 Alpha virt. eigenvalues --    1.06530   1.07945   1.08841   1.10039   1.10799
 Alpha virt. eigenvalues --    1.12889   1.13508   1.13880   1.15517   1.16351
 Alpha virt. eigenvalues --    1.16603   1.18828   1.19905   1.20584   1.21722
 Alpha virt. eigenvalues --    1.22343   1.23350   1.24457   1.26322   1.26795
 Alpha virt. eigenvalues --    1.28122   1.28293   1.28801   1.30282   1.31238
 Alpha virt. eigenvalues --    1.33250   1.34764   1.35116   1.36007   1.36443
 Alpha virt. eigenvalues --    1.37083   1.37959   1.38645   1.39005   1.39704
 Alpha virt. eigenvalues --    1.39978   1.40826   1.42363   1.43403   1.44429
 Alpha virt. eigenvalues --    1.44626   1.45753   1.46925   1.47481   1.49867
 Alpha virt. eigenvalues --    1.49892   1.50691   1.51807   1.52739   1.53238
 Alpha virt. eigenvalues --    1.56725   1.57018   1.60776   1.62664   1.63865
 Alpha virt. eigenvalues --    1.65218   1.67316   1.71769   1.74052   1.74731
 Alpha virt. eigenvalues --    1.75408   1.76033   1.76732   1.77869   1.78413
 Alpha virt. eigenvalues --    1.79350   1.79394   1.80423   1.80831   1.81090
 Alpha virt. eigenvalues --    1.81909   1.82467   1.83262   1.83959   1.86138
 Alpha virt. eigenvalues --    1.87044   1.87987   1.88687   1.89882   1.90172
 Alpha virt. eigenvalues --    1.91535   1.92298   1.93233   1.94377   1.95034
 Alpha virt. eigenvalues --    1.96089   1.97297   1.98742   1.99087   2.00038
 Alpha virt. eigenvalues --    2.00219   2.01273   2.02249   2.02769   2.05630
 Alpha virt. eigenvalues --    2.06636   2.08660   2.10589   2.11690   2.12667
 Alpha virt. eigenvalues --    2.12761   2.13977   2.14575   2.14765   2.15922
 Alpha virt. eigenvalues --    2.16406   2.17802   2.18555   2.19229   2.20414
 Alpha virt. eigenvalues --    2.22456   2.23832   2.23941   2.27704   2.28111
 Alpha virt. eigenvalues --    2.28372   2.29290   2.30329   2.30943   2.32203
 Alpha virt. eigenvalues --    2.32866   2.33154   2.33394   2.33754   2.33986
 Alpha virt. eigenvalues --    2.34533   2.35002   2.36348   2.37496   2.38243
 Alpha virt. eigenvalues --    2.41146   2.44223   2.46525   2.48576   2.51596
 Alpha virt. eigenvalues --    2.51732   2.53087   2.53563   2.54290   2.55445
 Alpha virt. eigenvalues --    2.56382   2.57257   2.58590   2.59250   2.60633
 Alpha virt. eigenvalues --    2.63717   2.64216   2.65119   2.66140   2.66424
 Alpha virt. eigenvalues --    2.67606   2.67818   2.71406   2.74495   2.75935
 Alpha virt. eigenvalues --    2.75979   2.77459   2.78631   2.81897   2.85202
 Alpha virt. eigenvalues --    2.87560   2.90799   2.91446   2.93390   2.96609
 Alpha virt. eigenvalues --    3.02667   3.04724   3.06474   3.08806   3.10206
 Alpha virt. eigenvalues --    3.10981   3.21871   3.29724   3.32531   3.46430
 Alpha virt. eigenvalues --   21.75495
          Condensed to atoms (all electrons):
 Mulliken charges:
               1
     1  Co   0.328210
     2  N   -0.169089
     3  O   -0.572204
     4  C    0.325108
     5  C   -0.546686
     6  H    0.199301
     7  H    0.200297
     8  H    0.205059
     9  N   -0.063885
    10  O   -0.554975
    11  C    0.268314
    12  C   -0.547122
    13  H    0.189441
    14  H    0.186930
    15  H    0.190420
    16  N   -0.171002
    17  O   -0.571473
    18  C    0.329646
    19  C   -0.547641
    20  H    0.198596
    21  H    0.199599
    22  H    0.205142
    23  N   -0.089755
    24  O   -0.550016
    25  C    0.273169
    26  C   -0.549687
    27  H    0.189713
    28  H    0.188201
    29  H    0.187068
    30  H    0.472099
    31  H    0.469663
    32  C   -0.397949
    33  H    0.186033
    34  H    0.189770
    35  C    0.237917
    36  C   -0.268780
    37  H    0.152942
    38  C   -0.556549
    39  H    0.164055
    40  H    0.193155
    41  H    0.165299
    42  C    0.153803
    43  C   -0.203775
    44  C   -0.205538
    45  C   -0.158204
    46  H    0.164623
    47  C   -0.153752
    48  H    0.153824
    49  C   -0.151245
    50  H    0.154061
    51  H    0.154184
    52  H    0.153684
 Sum of Mulliken charges =  -0.00000
 Mulliken charges with hydrogens summed into heavy atoms:
               1
     1  Co   0.328210
     2  N   -0.169089
     3  O   -0.100104
     4  C    0.325108
     5  C    0.057971
     9  N   -0.063885
    10  O   -0.554975
    11  C    0.268314
    12  C    0.019669
    16  N   -0.171002
    17  O   -0.101810
    18  C    0.329646
    19  C    0.055696
    23  N   -0.089755
    24  O   -0.550016
    25  C    0.273169
    26  C    0.015295
    32  C   -0.022146
    35  C    0.237917
    36  C   -0.115838
    38  C   -0.034039
    42  C    0.153803
    43  C   -0.039152
    44  C   -0.051715
    45  C   -0.004143
    47  C    0.000432
    49  C    0.002438
 Electronic spatial extent (au):  <R**2>=          10349.7886
 Charge=             -0.0000 electrons
 Dipole moment (field-independent basis, Debye):
    X=             -0.1753    Y=              0.1763    Z=              0.8906  Tot=              0.9246
 Quadrupole moment (field-independent basis, Debye-Ang):
   XX=           -134.4199   YY=           -170.2329   ZZ=           -166.3165
   XY=             14.7673   XZ=              3.9184   YZ=             11.8268
 Traceless Quadrupole moment (field-independent basis, Debye-Ang):
   XX=             22.5698   YY=            -13.2431   ZZ=             -9.3267
   XY=             14.7673   XZ=              3.9184   YZ=             11.8268
 Octapole moment (field-independent basis, Debye-Ang**2):
  XXX=           -111.1230  YYY=             11.0924  ZZZ=             22.2587  XYY=              1.2120
  XXY=            -37.4977  XXZ=             -1.2428  XZZ=            -13.0769  YZZ=             27.0489
  YYZ=             19.6558  XYZ=            -30.2229
 Hexadecapole moment (field-independent basis, Debye-Ang**3):
 XXXX=          -8129.8353 YYYY=          -2537.2169 ZZZZ=          -1818.0118 XXXY=            169.0331
 XXXZ=              7.6519 YYYX=             58.2345 YYYZ=             25.0774 ZZZX=             36.6407
 ZZZY=              8.5229 XXYY=          -1968.7498 XXZZ=          -1857.0615 YYZZ=           -704.3627
 XXYZ=            -35.3051 YYXZ=             39.8835 ZZXY=             64.9105
 N-N= 3.005459291826D+03 E-N=-9.202298801007D+03  KE= 1.300233234244D+03
 Unable to Open any file for archive entry.
 1\1\GINC-N204\SP\RB3LYP\GenECP\C18H25Co1N4O4\CJD\02-Mar-2023\0\\# B3LY
 P/genecp em=GD3BJ int=fine scrf=(smd,solvent=acetone)\\Template\\0,1\C
 o,0,-1.3255209399,-0.2374756962,-0.2443298616\N,0,-2.3795319986,1.3050
 598553,-0.3997831952\O,0,-2.0339813313,2.4584223407,-1.0398690978\C,0,
 -3.5481707338,1.223444386,0.1522384546\C,0,-4.5615741337,2.3159511427,
 0.1213751569\H,0,-5.5255046698,1.9298618973,-0.2014342466\H,0,-4.23194
 69192,3.1007539793,-0.5545360057\H,0,-4.6809445153,2.7349412198,1.1192
 918459\N,0,-2.7688416845,-0.8441239347,0.7937127614\O,0,-2.8102144247,
 -2.0080445057,1.3560720318\C,0,-3.7838346732,-0.0262691578,0.831765956
 8\C,0,-5.0685906241,-0.3390866764,1.5299124913\H,0,-5.8938754111,-0.38
 49671716,0.8208018326\H,0,-5.2946911497,0.421311918,2.2744836277\H,0,-
 4.9684003873,-1.3055021761,2.0196629867\N,0,-0.3861253367,-1.866460387
 9,-0.2936855443\O,0,-0.6058686096,-2.9477879931,0.5125018438\C,0,0.547
 1355654,-1.9361821928,-1.1872897324\C,0,1.4001359144,-3.1378198191,-1.
 4091243594\H,0,1.423070857,-3.3979810259,-2.464770986\H,0,1.0135822619
 ,-3.9730482336,-0.8307988945\H,0,2.4193280251,-2.9255180421,-1.0894645
 037\N,0,-0.0463289987,0.2564193228,-1.5545412058\O,0,0.0142170783,1.42
 59977467,-2.1153142408\C,0,0.7277123131,-0.7195260026,-1.9390670712\C,
 0,1.738688073,-0.591336722,-3.0331685497\H,0,1.730227054,0.4349940038,
 -3.3942587955\H,0,1.4994069933,-1.2591520032,-3.8597406687\H,0,2.73322
 85423,-0.8372344532,-2.6670005105\H,0,-1.1608073405,2.2152098365,-1.54
 13828628\H,0,-1.4987873238,-2.7302902658,0.9811257177\C,0,-0.400380895
 4,0.3802274133,1.4462417278\H,0,-1.0701854009,1.1298395474,1.865454478
 3\H,0,-0.3797804437,-0.5213785639,2.0573587246\C,0,0.9197795343,0.8997
 206154,1.1447072091\C,0,1.9893569187,0.0643273354,1.236104566\H,0,1.78
 62348117,-0.9423420728,1.5829002197\C,0,1.0278572838,2.3595905544,0.81
 75323952\H,0,1.9606560436,2.7734366807,1.1910478041\H,0,0.9854041516,2
 .5131985529,-0.2600343268\H,0,0.1950763868,2.9040443004,1.2550136508\C
 ,0,3.3917225274,0.3248941733,0.9928526808\C,0,3.865224403,1.2798936163
 ,0.0865081059\C,0,4.335871662,-0.4580746145,1.6728716171\C,0,5.2226035
 447,1.4604857272,-0.1040722681\H,0,3.1701730478,1.8509227826,-0.504785
 4025\C,0,5.6897570007,-0.2642294667,1.4908693717\H,0,3.9895878667,-1.2
 14118101,2.3631729541\C,0,6.1412782548,0.7021483387,0.6038387924\H,0,5
 .5671853491,2.1982763793,-0.8142872247\H,0,6.3987085488,-0.8702763589,
 2.0362160501\H,0,7.200477015,0.8534060081,0.4572888849\\Version=ES64L-
 G16RevC.01\State=1-A\HF=-1365.9336594\RMSD=6.699e-09\Dipole=-0.0733109
 ,-0.0562134,-0.351856\Quadrupole=16.4800684,-10.2335113,-6.2465571,-11
 .0575401,-3.4510248,8.8202615\PG=C01 [X(C18H25Co1N4O4)]\\@
 The archive entry for this job was punched.


 A MATHEMATICIAN IS A MACHINE FOR TURNING COFFEE INTO THEOREMS.
     -- QUOTED BY PAUL ERDOS
 Job cpu time:       0 days  0 hours 18 minutes 43.7 seconds.
 Elapsed time:       0 days  0 hours  1 minutes 12.2 seconds.
 File lengths (MBytes):  RWF=    332 Int=      0 D2E=      0 Chk=     14 Scr=      1
 Normal termination of Gaussian 16 at Thu Mar  2 08:02:05 2023.
