 Entering Gaussian System, Link 0=g16
 Initial command:
 /opt/local/g16/l1.exe "/data/tmp/cjd/Gau-65019.inp" -scrdir="/data/tmp/cjd/"
 Entering Link 1 = /opt/local/g16/l1.exe PID=     65020.
  
 Copyright (c) 1988-2019, Gaussian, Inc.  All Rights Reserved.
  
 This is part of the Gaussian(R) 16 program.  It is based on
 the Gaussian(R) 09 system (copyright 2009, Gaussian, Inc.),
 the Gaussian(R) 03 system (copyright 2003, Gaussian, Inc.),
 the Gaussian(R) 98 system (copyright 1998, Gaussian, Inc.),
 the Gaussian(R) 94 system (copyright 1995, Gaussian, Inc.),
 the Gaussian 92(TM) system (copyright 1992, Gaussian, Inc.),
 the Gaussian 90(TM) system (copyright 1990, Gaussian, Inc.),
 the Gaussian 88(TM) system (copyright 1988, Gaussian, Inc.),
 the Gaussian 86(TM) system (copyright 1986, Carnegie Mellon
 University), and the Gaussian 82(TM) system (copyright 1983,
 Carnegie Mellon University). Gaussian is a federally registered
 trademark of Gaussian, Inc.
  
 This software contains proprietary and confidential information,
 including trade secrets, belonging to Gaussian, Inc.
  
 This software is provided under written license and may be
 used, copied, transmitted, or stored only in accord with that
 written license.
  
 The following legend is applicable only to US Government
 contracts under FAR:
  
                    RESTRICTED RIGHTS LEGEND
  
 Use, reproduction and disclosure by the US Government is
 subject to restrictions as set forth in subparagraphs (a)
 and (c) of the Commercial Computer Software - Restricted
 Rights clause in FAR 52.227-19.
  
 Gaussian, Inc.
 340 Quinnipiac St., Bldg. 40, Wallingford CT 06492
  
  
 ---------------------------------------------------------------
 Warning -- This program may not be used in any manner that
 competes with the business of Gaussian, Inc. or will provide
 assistance to any competitor of Gaussian, Inc.  The licensee
 of this program is prohibited from giving any competitor of
 Gaussian, Inc. access to this program.  By using this program,
 the user acknowledges that Gaussian, Inc. is engaged in the
 business of creating and licensing software in the field of
 computational chemistry and represents and warrants to the
 licensee that it is not a competitor of Gaussian, Inc. and that
 it will not use this program in any manner prohibited above.
 ---------------------------------------------------------------
  

 Cite this work as:
 Gaussian 16, Revision C.01,
 M. J. Frisch, G. W. Trucks, H. B. Schlegel, G. E. Scuseria, 
 M. A. Robb, J. R. Cheeseman, G. Scalmani, V. Barone, 
 G. A. Petersson, H. Nakatsuji, X. Li, M. Caricato, A. V. Marenich, 
 J. Bloino, B. G. Janesko, R. Gomperts, B. Mennucci, H. P. Hratchian, 
 J. V. Ortiz, A. F. Izmaylov, J. L. Sonnenberg, D. Williams-Young, 
 F. Ding, F. Lipparini, F. Egidi, J. Goings, B. Peng, A. Petrone, 
 T. Henderson, D. Ranasinghe, V. G. Zakrzewski, J. Gao, N. Rega, 
 G. Zheng, W. Liang, M. Hada, M. Ehara, K. Toyota, R. Fukuda, 
 J. Hasegawa, M. Ishida, T. Nakajima, Y. Honda, O. Kitao, H. Nakai, 
 T. Vreven, K. Throssell, J. A. Montgomery, Jr., J. E. Peralta, 
 F. Ogliaro, M. J. Bearpark, J. J. Heyd, E. N. Brothers, K. N. Kudin, 
 V. N. Staroverov, T. A. Keith, R. Kobayashi, J. Normand, 
 K. Raghavachari, A. P. Rendell, J. C. Burant, S. S. Iyengar, 
 J. Tomasi, M. Cossi, J. M. Millam, M. Klene, C. Adamo, R. Cammi, 
 J. W. Ochterski, R. L. Martin, K. Morokuma, O. Farkas, 
 J. B. Foresman, and D. J. Fox, Gaussian, Inc., Wallingford CT, 2019.
 
 ******************************************
 Gaussian 16:  ES64L-G16RevC.01  3-Jul-2019
                 2-Mar-2023 
 ******************************************
 %nproc=16
 Will use up to   16 processors via shared memory.
 %mem=60GB
 -----------------------------------------------------------
 # B3LYP/genecp em=GD3BJ int=fine scrf=(smd,solvent=acetone)
 -----------------------------------------------------------
 1/38=1,172=1/1;
 2/12=2,17=6,18=5,40=1/2;
 3/5=7,11=2,16=1,17=8,25=1,30=1,70=32201,72=19,74=-5,75=-4,124=41/1,2,3;
 4//1;
 5/5=2,38=5,53=19/2;
 6/7=2,8=2,9=2,10=2,28=1/1;
 99/5=1,9=1/99;
 --------
 Template
 --------
 Symbolic Z-matrix:
 Charge =  0 Multiplicity = 1
 Co                   -1.04436  -0.65799  -0.58029 
 N                    -0.73524   1.18014  -0.30325 
 O                     0.10279   1.97366  -1.0274 
 C                    -1.42681   1.70942   0.65305 
 C                    -1.36927   3.1514    1.02494 
 H                    -0.95984   3.25769   2.02767 
 H                    -2.36718   3.5848    1.01853 
 H                    -0.73245   3.68344   0.3233 
 N                    -2.14317  -0.46181   0.93254 
 O                    -2.81013  -1.43305   1.47541 
 C                    -2.25669   0.76486   1.36047 
 C                    -3.14322   1.16269   2.49706 
 H                    -3.91006   1.85986   2.16296 
 H                    -2.56441   1.63935   3.28556 
 H                    -3.62317   0.26923   2.89149 
 N                    -1.58506  -2.39963  -1.02016 
 O                    -2.32322  -3.23475  -0.23452 
 C                    -1.22542  -2.80461  -2.1956 
 C                    -1.58471  -4.13523  -2.76285 
 H                    -1.97834  -4.02532  -3.77045 
 H                    -2.32335  -4.61564  -2.12645 
 H                    -0.6976   -4.76488  -2.81076 
 N                    -0.16614  -0.76175  -2.25189 
 O                     0.57233   0.18189  -2.74903 
 C                    -0.40719  -1.85823  -2.91457 
 C                     0.13223  -2.13222  -4.28209 
 H                    -0.67642  -2.22612  -5.00547 
 H                     0.71011  -3.0541   -4.28852 
 H                     0.773    -1.30226  -4.57312 
 H                     0.41767   1.35901  -1.80162 
 H                    -2.60148  -2.64401   0.57118 
 C                     0.52695  -1.39937   0.46652 
 H                     0.07731  -2.16756   1.09477 
 H                     1.15384  -1.82967  -0.31428 
 C                     1.21318  -0.37929   1.23751 
 C                     2.17229   0.37754   0.64495 
 H                     2.32406   0.23254  -0.41753 
 C                     0.80833  -0.22754   2.67604 
 H                     1.39255  -0.90557   3.29733 
 H                     0.96592   0.78787   3.02825 
 H                    -0.23783  -0.49288   2.79849 
 C                     2.97763   1.4358    1.22319 
 C                     3.47343   1.40472   2.52955 
 C                     3.30274   2.53466   0.41843 
 C                     4.2404    2.44681   3.01759 
 H                     3.29591   0.5418    3.15007 
 C                     4.05227   3.58148   0.91611 
 H                     2.9317    2.568    -0.59502 
 C                     4.52345   3.54394   2.22023 
 H                     4.62316   2.4016    4.02706 
 H                     4.27836   4.42849   0.28451 
 H                     5.11685   4.35917   2.60739 
 
 Stoichiometry    C18H25CoN4O4
 Framework group  C1[X(C18H25CoN4O4)]
 Deg. of freedom   150
 Full point group                 C1      NOp   1
 Largest Abelian subgroup         C1      NOp   1
 Largest concise Abelian subgroup C1      NOp   1
                         Standard orientation:                         
 ---------------------------------------------------------------------
 Center     Atomic      Atomic             Coordinates (Angstroms)
 Number     Number       Type             X           Y           Z
 ---------------------------------------------------------------------
      1         27           0        1.361365    0.226792    0.222438
      2          7           0       -0.137323    0.498793    1.331926
      3          8           0       -0.817563   -0.463176    2.016223
      4          6           0       -0.504814    1.732674    1.456021
      5          6           0       -1.640491    2.183140    2.309383
      6          1           0       -2.425961    2.605220    1.685459
      7          1           0       -1.310462    2.951705    3.005149
      8          1           0       -2.041054    1.336000    2.859669
      9          7           0        1.195047    2.078112   -0.059465
     10          8           0        1.970431    2.765480   -0.839953
     11          6           0        0.275393    2.652839    0.664862
     12          6           0        0.026464    4.127315    0.663038
     13          1           0        0.199849    4.549434    1.651711
     14          1           0       -0.999757    4.342111    0.372027
     15          1           0        0.707733    4.593007   -0.046325
     16          7           0        3.014674    0.020954   -0.639742
     17          8           0        3.632305    0.948353   -1.425870
     18          6           0        3.606132   -1.110515   -0.427676
     19          6           0        4.944663   -1.465473   -0.978804
     20          1           0        5.583838   -1.866973   -0.196156
     21          1           0        5.404313   -0.583358   -1.416956
     22          1           0        4.833429   -2.225404   -1.750720
     23          7           0        1.676355   -1.563954    0.742321
     24          8           0        0.853941   -2.274546    1.450581
     25          6           0        2.837227   -2.030161    0.375493
     26          6           0        3.325137   -3.399757    0.725227
     27          1           0        4.214364   -3.345605    1.351602
     28          1           0        3.570036   -3.960664   -0.174366
     29          1           0        2.538756   -3.917510    1.270800
     30          1           0       -0.251689   -1.319791    1.866695
     31          1           0        3.044867    1.797064   -1.325095
     32          6           0        0.395049   -0.276321   -1.488590
     33          1           0        0.868121    0.349975   -2.244211
     34          1           0        0.656146   -1.327291   -1.611460
     35          6           0       -1.037500   -0.061117   -1.402718
     36          6           0       -1.829138   -1.023336   -0.863039
     37          1           0       -1.331449   -1.888178   -0.441990
     38          6           0       -1.561692    1.242968   -1.932694
     39          1           0       -1.770778    1.151068   -2.997999
     40          1           0       -2.474690    1.540176   -1.424699
     41          1           0       -0.813444    2.021241   -1.813265
     42          6           0       -3.268434   -1.019058   -0.686252
     43          6           0       -4.159932   -0.470200   -1.612185
     44          6           0       -3.795988   -1.626041    0.460079
     45          6           0       -5.523388   -0.503877   -1.383665
     46          1           0       -3.787502   -0.056237   -2.534752
     47          6           0       -5.156416   -1.640003    0.693264
     48          1           0       -3.118564   -2.059910    1.180310
     49          6           0       -6.027757   -1.076404   -0.227193
     50          1           0       -6.198432   -0.082935   -2.114892
     51          1           0       -5.542906   -2.098406    1.592126
     52          1           0       -7.092894   -1.094389   -0.048936
 ---------------------------------------------------------------------
 Rotational constants (GHZ):           0.2851248           0.1303911           0.1112260
 General basis read from cards:  (5D, 7F)
 ======================================================================================================
                                       Pseudopotential Parameters
 ======================================================================================================
  Center     Atomic      Valence      Angular      Power
  Number     Number     Electrons     Momentum     of R      Exponent        Coefficient   SO-Coeffient
 ======================================================================================================
    1         27           17
                                      D and up 
                                                     1      434.1076104      -10.00000000    0.00000000
                                                     2       78.8402758      -66.72402760    0.00000000
                                                     2       19.6037749      -11.71922430    0.00000000
                                      S - D
                                                     0      151.2307582        3.00000000    0.00000000
                                                     1      169.6790026       20.15531100    0.00000000
                                                     2       64.9909423      413.37622440    0.00000000
                                                     2       12.5076287      133.87277050    0.00000000
                                      P - D
                                                     0       92.7319924        5.00000000    0.00000000
                                                     1      121.1910183        6.18923530    0.00000000
                                                     2       48.6265909      326.32159190    0.00000000
                                                     2       11.9966971       73.87889700    0.00000000
    2          7
                                   No pseudopotential on this center.
    3          8
                                   No pseudopotential on this center.
    4          6
                                   No pseudopotential on this center.
    5          6
                                   No pseudopotential on this center.
    6          1
                                   No pseudopotential on this center.
    7          1
                                   No pseudopotential on this center.
    8          1
                                   No pseudopotential on this center.
    9          7
                                   No pseudopotential on this center.
   10          8
                                   No pseudopotential on this center.
   11          6
                                   No pseudopotential on this center.
   12          6
                                   No pseudopotential on this center.
   13          1
                                   No pseudopotential on this center.
   14          1
                                   No pseudopotential on this center.
   15          1
                                   No pseudopotential on this center.
   16          7
                                   No pseudopotential on this center.
   17          8
                                   No pseudopotential on this center.
   18          6
                                   No pseudopotential on this center.
   19          6
                                   No pseudopotential on this center.
   20          1
                                   No pseudopotential on this center.
   21          1
                                   No pseudopotential on this center.
   22          1
                                   No pseudopotential on this center.
   23          7
                                   No pseudopotential on this center.
   24          8
                                   No pseudopotential on this center.
   25          6
                                   No pseudopotential on this center.
   26          6
                                   No pseudopotential on this center.
   27          1
                                   No pseudopotential on this center.
   28          1
                                   No pseudopotential on this center.
   29          1
                                   No pseudopotential on this center.
   30          1
                                   No pseudopotential on this center.
   31          1
                                   No pseudopotential on this center.
   32          6
                                   No pseudopotential on this center.
   33          1
                                   No pseudopotential on this center.
   34          1
                                   No pseudopotential on this center.
   35          6
                                   No pseudopotential on this center.
   36          6
                                   No pseudopotential on this center.
   37          1
                                   No pseudopotential on this center.
   38          6
                                   No pseudopotential on this center.
   39          1
                                   No pseudopotential on this center.
   40          1
                                   No pseudopotential on this center.
   41          1
                                   No pseudopotential on this center.
   42          6
                                   No pseudopotential on this center.
   43          6
                                   No pseudopotential on this center.
   44          6
                                   No pseudopotential on this center.
   45          6
                                   No pseudopotential on this center.
   46          1
                                   No pseudopotential on this center.
   47          6
                                   No pseudopotential on this center.
   48          1
                                   No pseudopotential on this center.
   49          6
                                   No pseudopotential on this center.
   50          1
                                   No pseudopotential on this center.
   51          1
                                   No pseudopotential on this center.
   52          1
                                   No pseudopotential on this center.
 ======================================================================================================
 There are   464 symmetry adapted cartesian basis functions of A   symmetry.
 There are   436 symmetry adapted basis functions of A   symmetry.
   436 basis functions,   880 primitive gaussians,   464 cartesian basis functions
   105 alpha electrons      105 beta electrons
       nuclear repulsion energy      3002.6764161480 Hartrees.
 NAtoms=   52 NActive=   52 NUniq=   52 SFac= 1.00D+00 NAtFMM=   60 NAOKFM=F Big=F
 Integral buffers will be    131072 words long.
 Raffenetti 2 integral format.
 Two-electron integral symmetry is turned on.
 Nuclear repulsion after empirical dispersion term =     3002.5518453243 Hartrees.
 ------------------------------------------------------------------------------
 Polarizable Continuum Model (PCM)
 =================================
 Model                : PCM.
 Atomic radii         : SMD-Coulomb.
 Polarization charges : Total charges.
 Charge compensation  : None.
 Solution method      : On-the-fly selection.
 Cavity type          : VdW (van der Waals Surface) (Alpha=1.000).
 Cavity algorithm     : GePol (No added spheres)
                        Default sphere list used, NSphG=   52.
                        Lebedev-Laikov grids with approx.  5.0 points / Ang**2.
                        Smoothing algorithm: York/Karplus (Gamma=1.0000).
                        Polarization charges: spherical gaussians, with
                                              point-specific exponents (IZeta= 3).
                        Self-potential: point-specific (ISelfS= 7).
                        Self-field    : sphere-specific E.n sum rule (ISelfD= 2).
 Solvent              : Acetone, Eps=  20.493000 Eps(inf)=   1.846337
 ------------------------------------------------------------------------------
 ------------------------------------------------------------------------------
 Atomic radii for non-electrostatic terms: SMD-CDS.
 ------------------------------------------------------------------------------
 Nuclear repulsion after PCM non-electrostatic terms =     3002.5453457749 Hartrees.
 One-electron integrals computed using PRISM.
   1 Symmetry operations used in ECPInt.
 ECPInt:  NShTT=   13203 NPrTT=   81964 LenC2=   11348 LenP2D=   39382.
 LDataN:  DoStor=T MaxTD1= 4 Len=   56
 NBasis=   436 RedAO= T EigKep=  4.38D-04  NBF=   436
 NBsUse=   436 1.00D-06 EigRej= -1.00D+00 NBFU=   436
 ExpMin= 2.30D-02 ExpMax= 5.48D+03 ExpMxC= 8.25D+02 IAcc=3 IRadAn=         5 AccDes= 0.00D+00
 Harris functional with IExCor=  402 and IRadAn=       5 diagonalized for initial guess.
 HarFok:  IExCor=  402 AccDes= 0.00D+00 IRadAn=         5 IDoV= 1 UseB2=F ITyADJ=14
 ICtDFT=  3500011 ScaDFX=  1.000000  1.000000  1.000000  1.000000
 FoFCou: FMM=F IPFlag=           0 FMFlag=      100000 FMFlg1=           0
         NFxFlg=           0 DoJE=T BraDBF=F KetDBF=T FulRan=T
         wScrn=  0.000000 ICntrl=       500 IOpCl=  0 I1Cent=   200000004 NGrid=           0
         NMat0=    1 NMatS0=      1 NMatT0=    0 NMatD0=    1 NMtDS0=    0 NMtDT0=    0
 Petite list used in FoFCou.
 Requested convergence on RMS density matrix=1.00D-08 within 128 cycles.
 Requested convergence on MAX density matrix=1.00D-06.
 Requested convergence on             energy=1.00D-06.
 No special actions if energy rises.
 Inv3:  Mode=1 IEnd=    40538928.
 Iteration    1 A*A^-1 deviation from unit magnitude is 3.77D-15 for   3466.
 Iteration    1 A*A^-1 deviation from orthogonality  is 2.54D-15 for   3320   2763.
 Iteration    1 A^-1*A deviation from unit magnitude is 3.77D-15 for   3466.
 Iteration    1 A^-1*A deviation from orthogonality  is 5.37D-14 for   2582   2477.
 EnCoef did     5 forward-backward iterations
 Restarting incremental Fock formation.
 Error on total polarization charges =  0.04572
 SCF Done:  E(RB3LYP) =  -1365.93153431     A.U. after   21 cycles
            NFock= 21  Conv=0.25D-08     -V/T= 2.0505
 SMD-CDS (non-electrostatic) energy       (kcal/mol) =      -4.08
 (included in total energy above)

 **********************************************************************

            Population analysis using the SCF Density.

 **********************************************************************

 Orbital symmetries:
       Occupied  (A) (A) (A) (A) (A) (A) (A) (A) (A) (A) (A) (A)
                 (A) (A) (A) (A) (A) (A) (A) (A) (A) (A) (A) (A)
                 (A) (A) (A) (A) (A) (A) (A) (A) (A) (A) (A) (A)
                 (A) (A) (A) (A) (A) (A) (A) (A) (A) (A) (A) (A)
                 (A) (A) (A) (A) (A) (A) (A) (A) (A) (A) (A) (A)
                 (A) (A) (A) (A) (A) (A) (A) (A) (A) (A) (A) (A)
                 (A) (A) (A) (A) (A) (A) (A) (A) (A) (A) (A) (A)
                 (A) (A) (A) (A) (A) (A) (A) (A) (A) (A) (A) (A)
                 (A) (A) (A) (A) (A) (A) (A) (A) (A)
       Virtual   (A) (A) (A) (A) (A) (A) (A) (A) (A) (A) (A) (A)
                 (A) (A) (A) (A) (A) (A) (A) (A) (A) (A) (A) (A)
                 (A) (A) (A) (A) (A) (A) (A) (A) (A) (A) (A) (A)
                 (A) (A) (A) (A) (A) (A) (A) (A) (A) (A) (A) (A)
                 (A) (A) (A) (A) (A) (A) (A) (A) (A) (A) (A) (A)
                 (A) (A) (A) (A) (A) (A) (A) (A) (A) (A) (A) (A)
                 (A) (A) (A) (A) (A) (A) (A) (A) (A) (A) (A) (A)
                 (A) (A) (A) (A) (A) (A) (A) (A) (A) (A) (A) (A)
                 (A) (A) (A) (A) (A) (A) (A) (A) (A) (A) (A) (A)
                 (A) (A) (A) (A) (A) (A) (A) (A) (A) (A) (A) (A)
                 (A) (A) (A) (A) (A) (A) (A) (A) (A) (A) (A) (A)
                 (A) (A) (A) (A) (A) (A) (A) (A) (A) (A) (A) (A)
                 (A) (A) (A) (A) (A) (A) (A) (A) (A) (A) (A) (A)
                 (A) (A) (A) (A) (A) (A) (A) (A) (A) (A) (A) (A)
                 (A) (A) (A) (A) (A) (A) (A) (A) (A) (A) (A) (A)
                 (A) (A) (A) (A) (A) (A) (A) (A) (A) (A) (A) (A)
                 (A) (A) (A) (A) (A) (A) (A) (A) (A) (A) (A) (A)
                 (A) (A) (A) (A) (A) (A) (A) (A) (A) (A) (A) (A)
                 (A) (A) (A) (A) (A) (A) (A) (A) (A) (A) (A) (A)
                 (A) (A) (A) (A) (A) (A) (A) (A) (A) (A) (A) (A)
                 (A) (A) (A) (A) (A) (A) (A) (A) (A) (A) (A) (A)
                 (A) (A) (A) (A) (A) (A) (A) (A) (A) (A) (A) (A)
                 (A) (A) (A) (A) (A) (A) (A) (A) (A) (A) (A) (A)
                 (A) (A) (A) (A) (A) (A) (A) (A) (A) (A) (A) (A)
                 (A) (A) (A) (A) (A) (A) (A) (A) (A) (A) (A) (A)
                 (A) (A) (A) (A) (A) (A) (A) (A) (A) (A) (A) (A)
                 (A) (A) (A) (A) (A) (A) (A) (A) (A) (A) (A) (A)
                 (A) (A) (A) (A) (A) (A) (A)
 The electronic state is 1-A.
 Alpha  occ. eigenvalues --  -19.16647 -19.16514 -19.12770 -19.12660 -14.40944
 Alpha  occ. eigenvalues --  -14.40940 -14.40609 -14.40383 -10.23644 -10.23467
 Alpha  occ. eigenvalues --  -10.21399 -10.21325 -10.18475 -10.18406 -10.17511
 Alpha  occ. eigenvalues --  -10.17478 -10.17458 -10.17450 -10.17435 -10.17404
 Alpha  occ. eigenvalues --  -10.17367 -10.17317 -10.16943 -10.16822 -10.16795
 Alpha  occ. eigenvalues --  -10.15814  -3.74462  -2.44494  -2.43673  -2.42631
 Alpha  occ. eigenvalues --   -1.09068  -1.08531  -1.06864  -1.06327  -0.90603
 Alpha  occ. eigenvalues --   -0.89392  -0.85737  -0.81918  -0.80935  -0.80579
 Alpha  occ. eigenvalues --   -0.75268  -0.74632  -0.74174  -0.74159  -0.70647
 Alpha  occ. eigenvalues --   -0.70518  -0.68422  -0.66397  -0.62317  -0.60298
 Alpha  occ. eigenvalues --   -0.60009  -0.58746  -0.54907  -0.53535  -0.52905
 Alpha  occ. eigenvalues --   -0.52098  -0.51298  -0.50848  -0.49449  -0.48993
 Alpha  occ. eigenvalues --   -0.47618  -0.47028  -0.46629  -0.46053  -0.45265
 Alpha  occ. eigenvalues --   -0.44477  -0.43379  -0.42792  -0.42279  -0.42243
 Alpha  occ. eigenvalues --   -0.42019  -0.41863  -0.41547  -0.40919  -0.40573
 Alpha  occ. eigenvalues --   -0.39992  -0.39635  -0.39273  -0.38796  -0.38255
 Alpha  occ. eigenvalues --   -0.38104  -0.38036  -0.37599  -0.37380  -0.36737
 Alpha  occ. eigenvalues --   -0.36458  -0.34957  -0.34307  -0.34217  -0.33243
 Alpha  occ. eigenvalues --   -0.32898  -0.30935  -0.30416  -0.28304  -0.28014
 Alpha  occ. eigenvalues --   -0.27743  -0.26413  -0.26227  -0.25131  -0.25028
 Alpha  occ. eigenvalues --   -0.24896  -0.22372  -0.20213  -0.19815  -0.19462
 Alpha virt. eigenvalues --   -0.09159  -0.03751  -0.03367  -0.00429   0.00261
 Alpha virt. eigenvalues --    0.00530   0.02588   0.02820   0.03345   0.05950
 Alpha virt. eigenvalues --    0.06722   0.06814   0.07833   0.11030   0.12228
 Alpha virt. eigenvalues --    0.12503   0.13612   0.14418   0.14692   0.15050
 Alpha virt. eigenvalues --    0.15446   0.16079   0.16485   0.16816   0.17239
 Alpha virt. eigenvalues --    0.17543   0.18013   0.18262   0.18701   0.18769
 Alpha virt. eigenvalues --    0.19262   0.19423   0.20007   0.20239   0.21398
 Alpha virt. eigenvalues --    0.21844   0.22630   0.23143   0.23650   0.24814
 Alpha virt. eigenvalues --    0.25134   0.25357   0.25844   0.25889   0.26854
 Alpha virt. eigenvalues --    0.27164   0.28124   0.28659   0.29546   0.30144
 Alpha virt. eigenvalues --    0.30682   0.31942   0.32279   0.33108   0.34403
 Alpha virt. eigenvalues --    0.35125   0.36305   0.36746   0.40302   0.41190
 Alpha virt. eigenvalues --    0.42249   0.42591   0.42767   0.45038   0.46988
 Alpha virt. eigenvalues --    0.48152   0.50387   0.51015   0.52056   0.52962
 Alpha virt. eigenvalues --    0.53823   0.53977   0.55067   0.55668   0.56127
 Alpha virt. eigenvalues --    0.56460   0.57483   0.57924   0.58055   0.58398
 Alpha virt. eigenvalues --    0.59649   0.59857   0.60412   0.60655   0.60823
 Alpha virt. eigenvalues --    0.61077   0.61941   0.62494   0.63143   0.63301
 Alpha virt. eigenvalues --    0.64126   0.65174   0.65478   0.66830   0.67736
 Alpha virt. eigenvalues --    0.68209   0.69213   0.69402   0.69960   0.70529
 Alpha virt. eigenvalues --    0.71104   0.71861   0.72503   0.73592   0.74554
 Alpha virt. eigenvalues --    0.75119   0.75766   0.76464   0.77270   0.78194
 Alpha virt. eigenvalues --    0.78699   0.80040   0.81743   0.82048   0.82974
 Alpha virt. eigenvalues --    0.83983   0.84250   0.84455   0.85095   0.85228
 Alpha virt. eigenvalues --    0.85571   0.85794   0.86959   0.87193   0.87471
 Alpha virt. eigenvalues --    0.87943   0.89337   0.89747   0.90046   0.90253
 Alpha virt. eigenvalues --    0.90657   0.91392   0.91445   0.92040   0.92457
 Alpha virt. eigenvalues --    0.93123   0.93686   0.94460   0.95019   0.95944
 Alpha virt. eigenvalues --    0.96321   0.96745   0.96926   0.97895   0.99323
 Alpha virt. eigenvalues --    1.00000   1.00463   1.01076   1.02725   1.02926
 Alpha virt. eigenvalues --    1.03942   1.04015   1.04915   1.05427   1.05644
 Alpha virt. eigenvalues --    1.06621   1.08369   1.09304   1.10161   1.10899
 Alpha virt. eigenvalues --    1.11455   1.12040   1.13055   1.14862   1.15574
 Alpha virt. eigenvalues --    1.16634   1.17786   1.19416   1.20853   1.21602
 Alpha virt. eigenvalues --    1.22502   1.24347   1.24791   1.25513   1.26927
 Alpha virt. eigenvalues --    1.28541   1.28907   1.29371   1.30767   1.31303
 Alpha virt. eigenvalues --    1.33721   1.33912   1.35330   1.35593   1.36859
 Alpha virt. eigenvalues --    1.37058   1.37936   1.38314   1.39090   1.39285
 Alpha virt. eigenvalues --    1.39470   1.40779   1.42325   1.43496   1.44865
 Alpha virt. eigenvalues --    1.45089   1.45846   1.46510   1.49060   1.49894
 Alpha virt. eigenvalues --    1.50628   1.50745   1.51769   1.52173   1.53328
 Alpha virt. eigenvalues --    1.54908   1.59552   1.60817   1.62189   1.62852
 Alpha virt. eigenvalues --    1.65357   1.68707   1.70811   1.74154   1.74726
 Alpha virt. eigenvalues --    1.75280   1.76239   1.76990   1.77845   1.78673
 Alpha virt. eigenvalues --    1.79009   1.80050   1.80387   1.80997   1.81588
 Alpha virt. eigenvalues --    1.82276   1.82495   1.82950   1.83936   1.85242
 Alpha virt. eigenvalues --    1.87128   1.88252   1.89856   1.90273   1.90947
 Alpha virt. eigenvalues --    1.91744   1.92390   1.93169   1.94000   1.95040
 Alpha virt. eigenvalues --    1.96060   1.96854   1.98032   1.99076   1.99659
 Alpha virt. eigenvalues --    2.00198   2.00668   2.01837   2.02750   2.05638
 Alpha virt. eigenvalues --    2.06577   2.09583   2.10239   2.11841   2.12470
 Alpha virt. eigenvalues --    2.12878   2.13825   2.14709   2.15080   2.16203
 Alpha virt. eigenvalues --    2.16652   2.17621   2.19399   2.19993   2.20858
 Alpha virt. eigenvalues --    2.21527   2.23746   2.24107   2.26768   2.28142
 Alpha virt. eigenvalues --    2.28284   2.29301   2.30020   2.31012   2.32147
 Alpha virt. eigenvalues --    2.32908   2.33038   2.33439   2.34213   2.34256
 Alpha virt. eigenvalues --    2.34538   2.35632   2.36600   2.37468   2.39654
 Alpha virt. eigenvalues --    2.40034   2.44763   2.45444   2.46410   2.51339
 Alpha virt. eigenvalues --    2.51886   2.52535   2.52984   2.54479   2.55656
 Alpha virt. eigenvalues --    2.56678   2.57552   2.58353   2.59882   2.60650
 Alpha virt. eigenvalues --    2.64279   2.64581   2.64930   2.65863   2.66288
 Alpha virt. eigenvalues --    2.67832   2.68686   2.71058   2.74829   2.76258
 Alpha virt. eigenvalues --    2.76867   2.77231   2.78263   2.81998   2.85685
 Alpha virt. eigenvalues --    2.87243   2.90965   2.91669   2.93409   2.96021
 Alpha virt. eigenvalues --    3.02795   3.05287   3.05563   3.08531   3.10152
 Alpha virt. eigenvalues --    3.11439   3.20394   3.29614   3.32587   3.46524
 Alpha virt. eigenvalues --   21.74097
          Condensed to atoms (all electrons):
 Mulliken charges:
               1
     1  Co   0.323172
     2  N   -0.171200
     3  O   -0.566766
     4  C    0.325662
     5  C   -0.548160
     6  H    0.203849
     7  H    0.198858
     8  H    0.200452
     9  N   -0.078217
    10  O   -0.559900
    11  C    0.271317
    12  C   -0.548947
    13  H    0.188376
    14  H    0.187095
    15  H    0.190503
    16  N   -0.159989
    17  O   -0.573072
    18  C    0.324447
    19  C   -0.545812
    20  H    0.199003
    21  H    0.200485
    22  H    0.205165
    23  N   -0.078560
    24  O   -0.556252
    25  C    0.270387
    26  C   -0.547989
    27  H    0.189374
    28  H    0.187246
    29  H    0.190434
    30  H    0.471881
    31  H    0.470965
    32  C   -0.402641
    33  H    0.189400
    34  H    0.195747
    35  C    0.230699
    36  C   -0.245138
    37  H    0.148281
    38  C   -0.554989
    39  H    0.180063
    40  H    0.168833
    41  H    0.181573
    42  C    0.138102
    43  C   -0.200071
    44  C   -0.196753
    45  C   -0.158686
    46  H    0.158864
    47  C   -0.156337
    48  H    0.153847
    49  C   -0.151951
    50  H    0.152605
    51  H    0.152651
    52  H    0.152096
 Sum of Mulliken charges =  -0.00000
 Mulliken charges with hydrogens summed into heavy atoms:
               1
     1  Co   0.323172
     2  N   -0.171200
     3  O   -0.094886
     4  C    0.325662
     5  C    0.054999
     9  N   -0.078217
    10  O   -0.559900
    11  C    0.271317
    12  C    0.017027
    16  N   -0.159989
    17  O   -0.102107
    18  C    0.324447
    19  C    0.058841
    23  N   -0.078560
    24  O   -0.556252
    25  C    0.270387
    26  C    0.019064
    32  C   -0.017494
    35  C    0.230699
    36  C   -0.096857
    38  C   -0.024521
    42  C    0.138102
    43  C   -0.041207
    44  C   -0.042905
    45  C   -0.006081
    47  C   -0.003686
    49  C    0.000145
 Electronic spatial extent (au):  <R**2>=          10304.0340
 Charge=             -0.0000 electrons
 Dipole moment (field-independent basis, Debye):
    X=              0.1737    Y=              0.4237    Z=              0.7399  Tot=              0.8701
 Quadrupole moment (field-independent basis, Debye-Ang):
   XX=           -146.2592   YY=           -161.8669   ZZ=           -163.9839
   XY=            -22.5652   XZ=              2.6434   YZ=             10.6366
 Traceless Quadrupole moment (field-independent basis, Debye-Ang):
   XX=             11.1108   YY=             -4.4969   ZZ=             -6.6139
   XY=            -22.5652   XZ=              2.6434   YZ=             10.6366
 Octapole moment (field-independent basis, Debye-Ang**2):
  XXX=             71.8838  YYY=             25.8876  ZZZ=              9.7151  XYY=             29.0373
  XXY=            -62.8251  XXZ=             15.9420  XZZ=              6.2148  YZZ=             20.1760
  YYZ=             29.3543  XYZ=             26.2898
 Hexadecapole moment (field-independent basis, Debye-Ang**3):
 XXXX=          -7807.1819 YYYY=          -3329.6379 ZZZZ=          -1583.1122 XXXY=           -247.0588
 XXXZ=             13.1996 YYYX=           -158.7775 YYYZ=             74.7444 ZZZX=             -8.0432
 ZZZY=              1.5984 XXYY=          -1971.3089 XXZZ=          -1666.0390 YYZZ=           -807.1333
 XXYZ=            -47.9024 YYXZ=            -61.1425 ZZXY=            -24.5571
 N-N= 3.002545345775D+03 E-N=-9.196630702030D+03  KE= 1.300227438108D+03
 Unable to Open any file for archive entry.
 1\1\GINC-N204\SP\RB3LYP\GenECP\C18H25Co1N4O4\CJD\02-Mar-2023\0\\# B3LY
 P/genecp em=GD3BJ int=fine scrf=(smd,solvent=acetone)\\Template\\0,1\C
 o,0,-1.0443632096,-0.6579871099,-0.5802930018\N,0,-0.7352417786,1.1801
 381438,-0.3032503429\O,0,0.1027887158,1.973663219,-1.0274018866\C,0,-1
 .4268071133,1.7094245541,0.6530478825\C,0,-1.369271891,3.1514000095,1.
 0249426943\H,0,-0.9598449132,3.2576944218,2.027672146\H,0,-2.367183888
 5,3.5847965512,1.0185267642\H,0,-0.7324460876,3.6834420058,0.323303694
 5\N,0,-2.1431715743,-0.4618103528,0.9325356929\O,0,-2.8101292354,-1.43
 30524828,1.4754106372\C,0,-2.2566868532,0.7648561172,1.3604720472\C,0,
 -3.143219208,1.162686882,2.4970630861\H,0,-3.9100570948,1.8598613391,2
 .1629552085\H,0,-2.5644107286,1.6393497184,3.2855598431\H,0,-3.6231741
 585,0.2692327067,2.8914931374\N,0,-1.5850559437,-2.3996304044,-1.02016
 03723\O,0,-2.3232177154,-3.234751049,-0.2345236723\C,0,-1.2254208512,-
 2.8046136766,-2.1956044222\C,0,-1.5847070384,-4.1352319949,-2.76285180
 87\H,0,-1.9783359838,-4.0253194263,-3.7704530667\H,0,-2.3233464607,-4.
 6156356083,-2.1264507131\H,0,-0.697595902,-4.7648843981,-2.8107627647\
 N,0,-0.1661420685,-0.7617482406,-2.2518880851\O,0,0.5723298272,0.18188
 68347,-2.7490299965\C,0,-0.4071920549,-1.858234969,-2.9145702717\C,0,0
 .1322311787,-2.1322169069,-4.2820936953\H,0,-0.676416185,-2.2261237678
 ,-5.0054708895\H,0,0.710113371,-3.0541006066,-4.2885160014\H,0,0.77300
 11629,-1.3022593442,-4.5731184776\H,0,0.4176696964,1.3590080442,-1.801
 6175611\H,0,-2.6014788348,-2.6440143753,0.5711751442\C,0,0.5269546215,
 -1.3993651602,0.4665244071\H,0,0.0773091846,-2.1675636958,1.0947747299
 \H,0,1.1538372462,-1.8296712215,-0.3142831075\C,0,1.2131761398,-0.3792
 879094,1.2375134239\C,0,2.1722883335,0.3775399916,0.6449545076\H,0,2.3
 240618972,0.2325371134,-0.4175268047\C,0,0.8083306249,-0.2275446867,2.
 6760413149\H,0,1.3925476777,-0.9055744874,3.2973332138\H,0,0.965923826
 8,0.7878706494,3.0282522489\H,0,-0.2378288154,-0.4928849828,2.79848968
 89\C,0,2.9776263801,1.4358022579,1.2231895645\C,0,3.4734313088,1.40472
 37754,2.5295494285\C,0,3.3027426917,2.5346568052,0.41843159\C,0,4.2404
 029008,2.4468068723,3.0175910957\H,0,3.2959100534,0.5417959479,3.15006
 67266\C,0,4.0522749649,3.5814835158,0.9161147837\H,0,2.9316972876,2.56
 80038926,-0.5950233054\C,0,4.5234485454,3.5439378046,2.2202262042\H,0,
 4.623159541,2.4016013324,4.0270581294\H,0,4.278359339,4.4284937114,0.2
 845137795\H,0,5.1168462724,4.3591705548,2.607385041\\Version=ES64L-G16
 RevC.01\State=1-A\HF=-1365.9315343\RMSD=2.451e-09\Dipole=-0.2661242,0.
 2010283,-0.0771388\Quadrupole=-8.6386872,4.0974298,4.5412573,-6.050138
 1,6.5386015,16.2565606\PG=C01 [X(C18H25Co1N4O4)]\\@
 The archive entry for this job was punched.


 ALMOST ANYTHING IS EASIER TO GET INTO THAN OUT OF.

                         -- AGNES ALLEN'S LAW FROM
                PAUL DICKSON'S "THE OFFICIAL RULES"
 Job cpu time:       0 days  0 hours 19 minutes 22.2 seconds.
 Elapsed time:       0 days  0 hours  1 minutes 14.7 seconds.
 File lengths (MBytes):  RWF=    329 Int=      0 D2E=      0 Chk=     14 Scr=      1
 Normal termination of Gaussian 16 at Thu Mar  2 08:25:43 2023.
