 Entering Gaussian System, Link 0=g16
 Initial command:
 /opt/local/g16/l1.exe "/data/tmp/cjd/Gau-5363.inp" -scrdir="/data/tmp/cjd/"
 Entering Link 1 = /opt/local/g16/l1.exe PID=      5364.
  
 Copyright (c) 1988-2019, Gaussian, Inc.  All Rights Reserved.
  
 This is part of the Gaussian(R) 16 program.  It is based on
 the Gaussian(R) 09 system (copyright 2009, Gaussian, Inc.),
 the Gaussian(R) 03 system (copyright 2003, Gaussian, Inc.),
 the Gaussian(R) 98 system (copyright 1998, Gaussian, Inc.),
 the Gaussian(R) 94 system (copyright 1995, Gaussian, Inc.),
 the Gaussian 92(TM) system (copyright 1992, Gaussian, Inc.),
 the Gaussian 90(TM) system (copyright 1990, Gaussian, Inc.),
 the Gaussian 88(TM) system (copyright 1988, Gaussian, Inc.),
 the Gaussian 86(TM) system (copyright 1986, Carnegie Mellon
 University), and the Gaussian 82(TM) system (copyright 1983,
 Carnegie Mellon University). Gaussian is a federally registered
 trademark of Gaussian, Inc.
  
 This software contains proprietary and confidential information,
 including trade secrets, belonging to Gaussian, Inc.
  
 This software is provided under written license and may be
 used, copied, transmitted, or stored only in accord with that
 written license.
  
 The following legend is applicable only to US Government
 contracts under FAR:
  
                    RESTRICTED RIGHTS LEGEND
  
 Use, reproduction and disclosure by the US Government is
 subject to restrictions as set forth in subparagraphs (a)
 and (c) of the Commercial Computer Software - Restricted
 Rights clause in FAR 52.227-19.
  
 Gaussian, Inc.
 340 Quinnipiac St., Bldg. 40, Wallingford CT 06492
  
  
 ---------------------------------------------------------------
 Warning -- This program may not be used in any manner that
 competes with the business of Gaussian, Inc. or will provide
 assistance to any competitor of Gaussian, Inc.  The licensee
 of this program is prohibited from giving any competitor of
 Gaussian, Inc. access to this program.  By using this program,
 the user acknowledges that Gaussian, Inc. is engaged in the
 business of creating and licensing software in the field of
 computational chemistry and represents and warrants to the
 licensee that it is not a competitor of Gaussian, Inc. and that
 it will not use this program in any manner prohibited above.
 ---------------------------------------------------------------
  

 Cite this work as:
 Gaussian 16, Revision C.01,
 M. J. Frisch, G. W. Trucks, H. B. Schlegel, G. E. Scuseria, 
 M. A. Robb, J. R. Cheeseman, G. Scalmani, V. Barone, 
 G. A. Petersson, H. Nakatsuji, X. Li, M. Caricato, A. V. Marenich, 
 J. Bloino, B. G. Janesko, R. Gomperts, B. Mennucci, H. P. Hratchian, 
 J. V. Ortiz, A. F. Izmaylov, J. L. Sonnenberg, D. Williams-Young, 
 F. Ding, F. Lipparini, F. Egidi, J. Goings, B. Peng, A. Petrone, 
 T. Henderson, D. Ranasinghe, V. G. Zakrzewski, J. Gao, N. Rega, 
 G. Zheng, W. Liang, M. Hada, M. Ehara, K. Toyota, R. Fukuda, 
 J. Hasegawa, M. Ishida, T. Nakajima, Y. Honda, O. Kitao, H. Nakai, 
 T. Vreven, K. Throssell, J. A. Montgomery, Jr., J. E. Peralta, 
 F. Ogliaro, M. J. Bearpark, J. J. Heyd, E. N. Brothers, K. N. Kudin, 
 V. N. Staroverov, T. A. Keith, R. Kobayashi, J. Normand, 
 K. Raghavachari, A. P. Rendell, J. C. Burant, S. S. Iyengar, 
 J. Tomasi, M. Cossi, J. M. Millam, M. Klene, C. Adamo, R. Cammi, 
 J. W. Ochterski, R. L. Martin, K. Morokuma, O. Farkas, 
 J. B. Foresman, and D. J. Fox, Gaussian, Inc., Wallingford CT, 2019.
 
 ******************************************
 Gaussian 16:  ES64L-G16RevC.01  3-Jul-2019
                 2-Mar-2023 
 ******************************************
 %nproc=16
 Will use up to   16 processors via shared memory.
 %mem=60GB
 -----------------------------------------------------------
 # B3LYP/genecp em=GD3BJ int=fine scrf=(smd,solvent=acetone)
 -----------------------------------------------------------
 1/38=1,172=1/1;
 2/12=2,17=6,18=5,40=1/2;
 3/5=7,11=2,16=1,17=8,25=1,30=1,70=32201,72=19,74=-5,75=-4,124=41/1,2,3;
 4//1;
 5/5=2,38=5,53=19/2;
 6/7=2,8=2,9=2,10=2,28=1/1;
 99/5=1,9=1/99;
 --------
 Template
 --------
 Symbolic Z-matrix:
 Charge =  0 Multiplicity = 1
 Co                   -1.26667  -0.40709  -0.25158 
 N                    -1.73413   1.4114   -0.24462 
 O                    -0.96438   2.44116  -0.69929 
 C                    -2.89952   1.67112   0.25592 
 C                    -3.48264   3.0402    0.34527 
 H                    -4.49114   3.04976  -0.0615 
 H                    -2.85639   3.73963  -0.20267 
 H                    -3.53428   3.35142   1.38744 
 N                    -2.89957  -0.59586   0.65967 
 O                    -3.36904  -1.72898   1.071 
 C                    -3.58835   0.50748   0.75711 
 C                    -4.95679   0.57311   1.35677 
 H                    -4.9762    1.27016   2.19203 
 H                    -5.22635  -0.42009   1.71 
 H                    -5.68825   0.89794   0.61824 
 N                    -0.9203   -2.23571  -0.46985 
 O                    -1.54689  -3.25931   0.18264 
 C                    -0.01071  -2.52299  -1.34519 
 C                     0.3786   -3.91582  -1.70844 
 H                     0.44098  -4.02289  -2.78853 
 H                    -0.35216  -4.61335  -1.30691 
 H                     1.35363  -4.15204  -1.28477 
 N                     0.17793  -0.23137  -1.46727 
 O                     0.63499   0.90008  -1.90443 
 C                     0.61767  -1.36668  -1.93599 
 C                     1.68433  -1.46674  -2.98047 
 H                     2.45814  -2.16974  -2.68077 
 H                     2.12066  -0.47926  -3.12009 
 H                     1.26535  -1.79986  -3.92978 
 H                    -0.20113   1.96907  -1.22421 
 H                    -2.34627  -2.80564   0.6504 
 C                    -0.29433  -0.30928   1.51959 
 H                    -0.70492   0.58549   1.98601 
 H                    -0.60848  -1.21099   2.04304 
 C                     1.13692  -0.23295   1.30345 
 C                     1.71588   0.99204   1.17584 
 H                     1.05825   1.84626   1.28268 
 C                     1.90797  -1.52217   1.30775 
 H                     2.09663  -1.86482   0.29215 
 H                     2.86233  -1.39226   1.81203 
 H                     1.33937  -2.29647   1.8162 
 C                     3.09798   1.35363   0.95326 
 C                     3.5178    2.62442   1.37346 
 C                     4.0356    0.53829   0.31078 
 C                     4.82118   3.04184   1.20047 
 H                     2.80483   3.27958   1.85303 
 C                     5.33687   0.96589   0.12498 
 H                     3.73791  -0.41671  -0.08452 
 C                     5.74144   2.21089   0.57848 
 H                     5.12343   4.02082   1.5434 
 H                     6.04247   0.32307  -0.38155 
 H                     6.76126   2.53714   0.43731 
 
 Stoichiometry    C18H25CoN4O4
 Framework group  C1[X(C18H25CoN4O4)]
 Deg. of freedom   150
 Full point group                 C1      NOp   1
 Largest Abelian subgroup         C1      NOp   1
 Largest concise Abelian subgroup C1      NOp   1
                         Standard orientation:                         
 ---------------------------------------------------------------------
 Center     Atomic      Atomic             Coordinates (Angstroms)
 Number     Number       Type             X           Y           Z
 ---------------------------------------------------------------------
      1         27           0       -1.359246    0.201529    0.190674
      2          7           0       -1.423673   -1.553525    0.854827
      3          8           0       -0.453404   -2.172471    1.586359
      4          6           0       -2.501991   -2.206791    0.560549
      5          6           0       -2.775632   -3.605323    0.998313
      6          1           0       -3.761320   -3.674145    1.452530
      7          1           0       -2.017375   -3.919117    1.711188
      8          1           0       -2.751347   -4.272178    0.137872
      9          7           0       -2.987732   -0.285190   -0.611517
     10          8           0       -3.687388    0.504665   -1.359955
     11          6           0       -3.421771   -1.465971   -0.267065
     12          6           0       -4.739462   -2.019199   -0.707678
     13          1           0       -4.602054   -2.957119   -1.241849
     14          1           0       -5.214178   -1.295321   -1.366866
     15          1           0       -5.389104   -2.200233    0.147414
     16          7           0       -1.416774    2.016700   -0.271193
     17          8           0       -2.244476    2.588473   -1.195359
     18          6           0       -0.596928    2.776975    0.381437
     19          6           0       -0.519655    4.255599    0.204778
     20          1           0       -0.489727    4.752160    1.171463
     21          1           0       -1.380630    4.598723   -0.363359
     22          1           0        0.384611    4.518118   -0.342361
     23          7           0        0.080336    0.770638    1.285834
     24          8           0        0.767320   -0.010996    2.058686
     25          6           0        0.261587    2.062564    1.294421
     26          6           0        1.273925    2.744728    2.159593
     27          1           0        1.880189    3.435962    1.578693
     28          1           0        1.911813    1.983674    2.605564
     29          1           0        0.786055    3.302395    2.958772
     30          1           0        0.186284   -1.398921    1.857241
     31          1           0       -2.923835    1.844787   -1.416784
     32          6           0       -0.375735   -0.322802   -1.497479
     33          1           0       -0.580386   -1.388751   -1.590328
     34          1           0       -0.873025    0.247718   -2.280407
     35          6           0        1.036704   -0.023310   -1.369653
     36          6           0        1.865140   -0.976038   -0.861650
     37          1           0        1.407893   -1.926791   -0.615540
     38          6           0        1.511742    1.307259   -1.880090
     39          1           0        1.614675    2.021194   -1.065137
     40          1           0        2.475340    1.203070   -2.372648
     41          1           0        0.793348    1.715169   -2.586402
     42          6           0        3.291028   -0.944222   -0.624304
     43          6           0        3.977958   -2.167042   -0.600595
     44          6           0        4.026130    0.219735   -0.376295
     45          6           0        5.339375   -2.219885   -0.384442
     46          1           0        3.426502   -3.080960   -0.768468
     47          6           0        5.387589    0.161762   -0.144455
     48          1           0        3.526704    1.170755   -0.321107
     49          6           0        6.054316   -1.052565   -0.159820
     50          1           0        5.848043   -3.173104   -0.382635
     51          1           0        5.934319    1.072578    0.053436
     52          1           0        7.119425   -1.091514    0.014621
 ---------------------------------------------------------------------
 Rotational constants (GHZ):           0.2698145           0.1369629           0.1094769
 General basis read from cards:  (5D, 7F)
 ======================================================================================================
                                       Pseudopotential Parameters
 ======================================================================================================
  Center     Atomic      Valence      Angular      Power
  Number     Number     Electrons     Momentum     of R      Exponent        Coefficient   SO-Coeffient
 ======================================================================================================
    1         27           17
                                      D and up 
                                                     1      434.1076104      -10.00000000    0.00000000
                                                     2       78.8402758      -66.72402760    0.00000000
                                                     2       19.6037749      -11.71922430    0.00000000
                                      S - D
                                                     0      151.2307582        3.00000000    0.00000000
                                                     1      169.6790026       20.15531100    0.00000000
                                                     2       64.9909423      413.37622440    0.00000000
                                                     2       12.5076287      133.87277050    0.00000000
                                      P - D
                                                     0       92.7319924        5.00000000    0.00000000
                                                     1      121.1910183        6.18923530    0.00000000
                                                     2       48.6265909      326.32159190    0.00000000
                                                     2       11.9966971       73.87889700    0.00000000
    2          7
                                   No pseudopotential on this center.
    3          8
                                   No pseudopotential on this center.
    4          6
                                   No pseudopotential on this center.
    5          6
                                   No pseudopotential on this center.
    6          1
                                   No pseudopotential on this center.
    7          1
                                   No pseudopotential on this center.
    8          1
                                   No pseudopotential on this center.
    9          7
                                   No pseudopotential on this center.
   10          8
                                   No pseudopotential on this center.
   11          6
                                   No pseudopotential on this center.
   12          6
                                   No pseudopotential on this center.
   13          1
                                   No pseudopotential on this center.
   14          1
                                   No pseudopotential on this center.
   15          1
                                   No pseudopotential on this center.
   16          7
                                   No pseudopotential on this center.
   17          8
                                   No pseudopotential on this center.
   18          6
                                   No pseudopotential on this center.
   19          6
                                   No pseudopotential on this center.
   20          1
                                   No pseudopotential on this center.
   21          1
                                   No pseudopotential on this center.
   22          1
                                   No pseudopotential on this center.
   23          7
                                   No pseudopotential on this center.
   24          8
                                   No pseudopotential on this center.
   25          6
                                   No pseudopotential on this center.
   26          6
                                   No pseudopotential on this center.
   27          1
                                   No pseudopotential on this center.
   28          1
                                   No pseudopotential on this center.
   29          1
                                   No pseudopotential on this center.
   30          1
                                   No pseudopotential on this center.
   31          1
                                   No pseudopotential on this center.
   32          6
                                   No pseudopotential on this center.
   33          1
                                   No pseudopotential on this center.
   34          1
                                   No pseudopotential on this center.
   35          6
                                   No pseudopotential on this center.
   36          6
                                   No pseudopotential on this center.
   37          1
                                   No pseudopotential on this center.
   38          6
                                   No pseudopotential on this center.
   39          1
                                   No pseudopotential on this center.
   40          1
                                   No pseudopotential on this center.
   41          1
                                   No pseudopotential on this center.
   42          6
                                   No pseudopotential on this center.
   43          6
                                   No pseudopotential on this center.
   44          6
                                   No pseudopotential on this center.
   45          6
                                   No pseudopotential on this center.
   46          1
                                   No pseudopotential on this center.
   47          6
                                   No pseudopotential on this center.
   48          1
                                   No pseudopotential on this center.
   49          6
                                   No pseudopotential on this center.
   50          1
                                   No pseudopotential on this center.
   51          1
                                   No pseudopotential on this center.
   52          1
                                   No pseudopotential on this center.
 ======================================================================================================
 There are   464 symmetry adapted cartesian basis functions of A   symmetry.
 There are   436 symmetry adapted basis functions of A   symmetry.
   436 basis functions,   880 primitive gaussians,   464 cartesian basis functions
   105 alpha electrons      105 beta electrons
       nuclear repulsion energy      3001.9603121024 Hartrees.
 NAtoms=   52 NActive=   52 NUniq=   52 SFac= 1.00D+00 NAtFMM=   60 NAOKFM=F Big=F
 Integral buffers will be    131072 words long.
 Raffenetti 2 integral format.
 Two-electron integral symmetry is turned on.
 Nuclear repulsion after empirical dispersion term =     3001.8360676892 Hartrees.
 ------------------------------------------------------------------------------
 Polarizable Continuum Model (PCM)
 =================================
 Model                : PCM.
 Atomic radii         : SMD-Coulomb.
 Polarization charges : Total charges.
 Charge compensation  : None.
 Solution method      : On-the-fly selection.
 Cavity type          : VdW (van der Waals Surface) (Alpha=1.000).
 Cavity algorithm     : GePol (No added spheres)
                        Default sphere list used, NSphG=   52.
                        Lebedev-Laikov grids with approx.  5.0 points / Ang**2.
                        Smoothing algorithm: York/Karplus (Gamma=1.0000).
                        Polarization charges: spherical gaussians, with
                                              point-specific exponents (IZeta= 3).
                        Self-potential: point-specific (ISelfS= 7).
                        Self-field    : sphere-specific E.n sum rule (ISelfD= 2).
 Solvent              : Acetone, Eps=  20.493000 Eps(inf)=   1.846337
 ------------------------------------------------------------------------------
 ------------------------------------------------------------------------------
 Atomic radii for non-electrostatic terms: SMD-CDS.
 ------------------------------------------------------------------------------
 Nuclear repulsion after PCM non-electrostatic terms =     3001.8296659798 Hartrees.
 One-electron integrals computed using PRISM.
   1 Symmetry operations used in ECPInt.
 ECPInt:  NShTT=   13203 NPrTT=   81964 LenC2=   11347 LenP2D=   39375.
 LDataN:  DoStor=T MaxTD1= 4 Len=   56
 NBasis=   436 RedAO= T EigKep=  4.30D-04  NBF=   436
 NBsUse=   436 1.00D-06 EigRej= -1.00D+00 NBFU=   436
 ExpMin= 2.30D-02 ExpMax= 5.48D+03 ExpMxC= 8.25D+02 IAcc=3 IRadAn=         5 AccDes= 0.00D+00
 Harris functional with IExCor=  402 and IRadAn=       5 diagonalized for initial guess.
 HarFok:  IExCor=  402 AccDes= 0.00D+00 IRadAn=         5 IDoV= 1 UseB2=F ITyADJ=14
 ICtDFT=  3500011 ScaDFX=  1.000000  1.000000  1.000000  1.000000
 FoFCou: FMM=F IPFlag=           0 FMFlag=      100000 FMFlg1=           0
         NFxFlg=           0 DoJE=T BraDBF=F KetDBF=T FulRan=T
         wScrn=  0.000000 ICntrl=       500 IOpCl=  0 I1Cent=   200000004 NGrid=           0
         NMat0=    1 NMatS0=      1 NMatT0=    0 NMatD0=    1 NMtDS0=    0 NMtDT0=    0
 Petite list used in FoFCou.
 Requested convergence on RMS density matrix=1.00D-08 within 128 cycles.
 Requested convergence on MAX density matrix=1.00D-06.
 Requested convergence on             energy=1.00D-06.
 No special actions if energy rises.
 Inv3:  Mode=1 IEnd=    41025612.
 Iteration    1 A*A^-1 deviation from unit magnitude is 3.33D-15 for   2073.
 Iteration    1 A*A^-1 deviation from orthogonality  is 2.22D-15 for   2638    399.
 Iteration    1 A^-1*A deviation from unit magnitude is 3.33D-15 for   2073.
 Iteration    1 A^-1*A deviation from orthogonality  is 2.75D-14 for   1346   1342.
 EnCoef did     5 forward-backward iterations
 Restarting incremental Fock formation.
 Error on total polarization charges =  0.04548
 SCF Done:  E(RB3LYP) =  -1365.93199185     A.U. after   21 cycles
            NFock= 21  Conv=0.26D-08     -V/T= 2.0505
 SMD-CDS (non-electrostatic) energy       (kcal/mol) =      -4.02
 (included in total energy above)

 **********************************************************************

            Population analysis using the SCF Density.

 **********************************************************************

 Orbital symmetries:
       Occupied  (A) (A) (A) (A) (A) (A) (A) (A) (A) (A) (A) (A)
                 (A) (A) (A) (A) (A) (A) (A) (A) (A) (A) (A) (A)
                 (A) (A) (A) (A) (A) (A) (A) (A) (A) (A) (A) (A)
                 (A) (A) (A) (A) (A) (A) (A) (A) (A) (A) (A) (A)
                 (A) (A) (A) (A) (A) (A) (A) (A) (A) (A) (A) (A)
                 (A) (A) (A) (A) (A) (A) (A) (A) (A) (A) (A) (A)
                 (A) (A) (A) (A) (A) (A) (A) (A) (A) (A) (A) (A)
                 (A) (A) (A) (A) (A) (A) (A) (A) (A) (A) (A) (A)
                 (A) (A) (A) (A) (A) (A) (A) (A) (A)
       Virtual   (A) (A) (A) (A) (A) (A) (A) (A) (A) (A) (A) (A)
                 (A) (A) (A) (A) (A) (A) (A) (A) (A) (A) (A) (A)
                 (A) (A) (A) (A) (A) (A) (A) (A) (A) (A) (A) (A)
                 (A) (A) (A) (A) (A) (A) (A) (A) (A) (A) (A) (A)
                 (A) (A) (A) (A) (A) (A) (A) (A) (A) (A) (A) (A)
                 (A) (A) (A) (A) (A) (A) (A) (A) (A) (A) (A) (A)
                 (A) (A) (A) (A) (A) (A) (A) (A) (A) (A) (A) (A)
                 (A) (A) (A) (A) (A) (A) (A) (A) (A) (A) (A) (A)
                 (A) (A) (A) (A) (A) (A) (A) (A) (A) (A) (A) (A)
                 (A) (A) (A) (A) (A) (A) (A) (A) (A) (A) (A) (A)
                 (A) (A) (A) (A) (A) (A) (A) (A) (A) (A) (A) (A)
                 (A) (A) (A) (A) (A) (A) (A) (A) (A) (A) (A) (A)
                 (A) (A) (A) (A) (A) (A) (A) (A) (A) (A) (A) (A)
                 (A) (A) (A) (A) (A) (A) (A) (A) (A) (A) (A) (A)
                 (A) (A) (A) (A) (A) (A) (A) (A) (A) (A) (A) (A)
                 (A) (A) (A) (A) (A) (A) (A) (A) (A) (A) (A) (A)
                 (A) (A) (A) (A) (A) (A) (A) (A) (A) (A) (A) (A)
                 (A) (A) (A) (A) (A) (A) (A) (A) (A) (A) (A) (A)
                 (A) (A) (A) (A) (A) (A) (A) (A) (A) (A) (A) (A)
                 (A) (A) (A) (A) (A) (A) (A) (A) (A) (A) (A) (A)
                 (A) (A) (A) (A) (A) (A) (A) (A) (A) (A) (A) (A)
                 (A) (A) (A) (A) (A) (A) (A) (A) (A) (A) (A) (A)
                 (A) (A) (A) (A) (A) (A) (A) (A) (A) (A) (A) (A)
                 (A) (A) (A) (A) (A) (A) (A) (A) (A) (A) (A) (A)
                 (A) (A) (A) (A) (A) (A) (A) (A) (A) (A) (A) (A)
                 (A) (A) (A) (A) (A) (A) (A) (A) (A) (A) (A) (A)
                 (A) (A) (A) (A) (A) (A) (A) (A) (A) (A) (A) (A)
                 (A) (A) (A) (A) (A) (A) (A)
 The electronic state is 1-A.
 Alpha  occ. eigenvalues --  -19.16654 -19.16460 -19.12719 -19.12528 -14.41087
 Alpha  occ. eigenvalues --  -14.40816 -14.40456 -14.40366 -10.23649 -10.23582
 Alpha  occ. eigenvalues --  -10.21240 -10.21232 -10.18648 -10.18541 -10.17607
 Alpha  occ. eigenvalues --  -10.17565 -10.17542 -10.17498 -10.17477 -10.17464
 Alpha  occ. eigenvalues --  -10.17434 -10.17423 -10.17190 -10.16796 -10.16786
 Alpha  occ. eigenvalues --  -10.15944  -3.74295  -2.44324  -2.43569  -2.42419
 Alpha  occ. eigenvalues --   -1.09003  -1.08434  -1.06915  -1.06294  -0.90562
 Alpha  occ. eigenvalues --   -0.89376  -0.85841  -0.81834  -0.81031  -0.80530
 Alpha  occ. eigenvalues --   -0.75408  -0.74621  -0.74261  -0.74158  -0.70610
 Alpha  occ. eigenvalues --   -0.70489  -0.68613  -0.66420  -0.62274  -0.60292
 Alpha  occ. eigenvalues --   -0.60143  -0.58868  -0.54847  -0.53545  -0.53028
 Alpha  occ. eigenvalues --   -0.52058  -0.51271  -0.50815  -0.49526  -0.48946
 Alpha  occ. eigenvalues --   -0.47648  -0.46881  -0.46753  -0.46212  -0.45369
 Alpha  occ. eigenvalues --   -0.44427  -0.43460  -0.42541  -0.42480  -0.42292
 Alpha  occ. eigenvalues --   -0.42041  -0.41850  -0.41522  -0.40667  -0.40562
 Alpha  occ. eigenvalues --   -0.39970  -0.39841  -0.39128  -0.38842  -0.38265
 Alpha  occ. eigenvalues --   -0.38057  -0.37930  -0.37533  -0.37273  -0.36929
 Alpha  occ. eigenvalues --   -0.36560  -0.34877  -0.34539  -0.34267  -0.33351
 Alpha  occ. eigenvalues --   -0.33108  -0.30914  -0.30493  -0.28273  -0.27774
 Alpha  occ. eigenvalues --   -0.27617  -0.26787  -0.26204  -0.25063  -0.25001
 Alpha  occ. eigenvalues --   -0.24906  -0.22272  -0.19878  -0.19770  -0.19588
 Alpha virt. eigenvalues --   -0.09165  -0.03821  -0.03303  -0.00300   0.00282
 Alpha virt. eigenvalues --    0.00458   0.02656   0.02816   0.03267   0.06418
 Alpha virt. eigenvalues --    0.06748   0.06873   0.07442   0.11190   0.12319
 Alpha virt. eigenvalues --    0.12625   0.13541   0.14505   0.14704   0.14837
 Alpha virt. eigenvalues --    0.15453   0.15981   0.16175   0.17036   0.17256
 Alpha virt. eigenvalues --    0.17398   0.17780   0.18078   0.18229   0.18641
 Alpha virt. eigenvalues --    0.19321   0.19548   0.20232   0.20434   0.21744
 Alpha virt. eigenvalues --    0.22372   0.23025   0.23401   0.23723   0.23981
 Alpha virt. eigenvalues --    0.24812   0.25046   0.25460   0.25972   0.26705
 Alpha virt. eigenvalues --    0.26832   0.28506   0.29196   0.29508   0.30376
 Alpha virt. eigenvalues --    0.30913   0.31709   0.32331   0.33821   0.34763
 Alpha virt. eigenvalues --    0.35545   0.36425   0.36753   0.40394   0.41006
 Alpha virt. eigenvalues --    0.41435   0.42640   0.43216   0.44665   0.47095
 Alpha virt. eigenvalues --    0.48601   0.50184   0.51025   0.52479   0.53103
 Alpha virt. eigenvalues --    0.53734   0.54501   0.55112   0.55199   0.56230
 Alpha virt. eigenvalues --    0.56855   0.57106   0.57727   0.58560   0.58688
 Alpha virt. eigenvalues --    0.59238   0.59661   0.60296   0.60399   0.61108
 Alpha virt. eigenvalues --    0.61476   0.62233   0.62674   0.62949   0.63720
 Alpha virt. eigenvalues --    0.64275   0.65250   0.65890   0.66238   0.67229
 Alpha virt. eigenvalues --    0.68170   0.68503   0.69250   0.69993   0.70351
 Alpha virt. eigenvalues --    0.70855   0.72268   0.72696   0.73217   0.74585
 Alpha virt. eigenvalues --    0.75129   0.75854   0.76678   0.77192   0.78684
 Alpha virt. eigenvalues --    0.79309   0.80213   0.81676   0.82608   0.83609
 Alpha virt. eigenvalues --    0.83768   0.84510   0.84603   0.85278   0.85379
 Alpha virt. eigenvalues --    0.86219   0.86423   0.86441   0.87618   0.88115
 Alpha virt. eigenvalues --    0.88413   0.88979   0.89387   0.89940   0.90650
 Alpha virt. eigenvalues --    0.91065   0.91362   0.91768   0.91912   0.93023
 Alpha virt. eigenvalues --    0.93397   0.94140   0.94740   0.95286   0.95646
 Alpha virt. eigenvalues --    0.95934   0.96952   0.97705   0.97980   0.98616
 Alpha virt. eigenvalues --    0.99613   1.01188   1.02353   1.02631   1.02691
 Alpha virt. eigenvalues --    1.03745   1.03972   1.04772   1.05138   1.05725
 Alpha virt. eigenvalues --    1.07178   1.07987   1.09719   1.09989   1.10789
 Alpha virt. eigenvalues --    1.11348   1.13178   1.14126   1.15117   1.16296
 Alpha virt. eigenvalues --    1.17116   1.17960   1.19410   1.19952   1.21975
 Alpha virt. eigenvalues --    1.22348   1.23359   1.24946   1.26088   1.26250
 Alpha virt. eigenvalues --    1.28206   1.28624   1.29543   1.30529   1.31619
 Alpha virt. eigenvalues --    1.33703   1.34203   1.35597   1.36139   1.36804
 Alpha virt. eigenvalues --    1.37061   1.37883   1.38173   1.39281   1.39626
 Alpha virt. eigenvalues --    1.40025   1.41498   1.42660   1.43955   1.44336
 Alpha virt. eigenvalues --    1.44775   1.45397   1.46811   1.48783   1.49463
 Alpha virt. eigenvalues --    1.50104   1.50507   1.51729   1.52445   1.52991
 Alpha virt. eigenvalues --    1.55550   1.59618   1.60773   1.61251   1.63014
 Alpha virt. eigenvalues --    1.64905   1.67536   1.71923   1.74072   1.74485
 Alpha virt. eigenvalues --    1.75456   1.76210   1.76779   1.77905   1.78144
 Alpha virt. eigenvalues --    1.79534   1.79775   1.80180   1.80449   1.81317
 Alpha virt. eigenvalues --    1.81948   1.82502   1.83068   1.84518   1.86016
 Alpha virt. eigenvalues --    1.87454   1.87927   1.88731   1.89495   1.90418
 Alpha virt. eigenvalues --    1.91820   1.92397   1.92971   1.94276   1.94971
 Alpha virt. eigenvalues --    1.96813   1.97714   1.98769   1.99213   1.99627
 Alpha virt. eigenvalues --    2.00319   2.01285   2.01442   2.02920   2.05656
 Alpha virt. eigenvalues --    2.06300   2.08494   2.10983   2.11570   2.12545
 Alpha virt. eigenvalues --    2.12914   2.13939   2.14730   2.15487   2.16081
 Alpha virt. eigenvalues --    2.16289   2.17701   2.18322   2.19715   2.20422
 Alpha virt. eigenvalues --    2.22989   2.23385   2.24163   2.27820   2.28308
 Alpha virt. eigenvalues --    2.28717   2.29750   2.30566   2.30776   2.32353
 Alpha virt. eigenvalues --    2.32759   2.32983   2.33120   2.33347   2.33770
 Alpha virt. eigenvalues --    2.34779   2.35608   2.36253   2.37665   2.38706
 Alpha virt. eigenvalues --    2.41677   2.43548   2.46182   2.48563   2.51401
 Alpha virt. eigenvalues --    2.51767   2.53202   2.53840   2.54300   2.55886
 Alpha virt. eigenvalues --    2.56533   2.57251   2.58361   2.59035   2.60594
 Alpha virt. eigenvalues --    2.64183   2.64416   2.65179   2.66116   2.66573
 Alpha virt. eigenvalues --    2.67835   2.67909   2.71522   2.74769   2.75078
 Alpha virt. eigenvalues --    2.76427   2.77623   2.78626   2.81982   2.85176
 Alpha virt. eigenvalues --    2.88185   2.90888   2.91396   2.93430   2.96339
 Alpha virt. eigenvalues --    3.02493   3.05351   3.05865   3.08842   3.10215
 Alpha virt. eigenvalues --    3.10835   3.22346   3.29615   3.32459   3.46566
 Alpha virt. eigenvalues --   21.82656
          Condensed to atoms (all electrons):
 Mulliken charges:
               1
     1  Co   0.317181
     2  N   -0.168563
     3  O   -0.572557
     4  C    0.323825
     5  C   -0.546894
     6  H    0.198839
     7  H    0.199747
     8  H    0.204330
     9  N   -0.064602
    10  O   -0.555724
    11  C    0.267165
    12  C   -0.547418
    13  H    0.186453
    14  H    0.189886
    15  H    0.188707
    16  N   -0.167263
    17  O   -0.572199
    18  C    0.328702
    19  C   -0.546820
    20  H    0.197451
    21  H    0.200284
    22  H    0.205179
    23  N   -0.079272
    24  O   -0.552573
    25  C    0.259460
    26  C   -0.548093
    27  H    0.183710
    28  H    0.190913
    29  H    0.189113
    30  H    0.471875
    31  H    0.469322
    32  C   -0.399317
    33  H    0.192237
    34  H    0.183867
    35  C    0.226983
    36  C   -0.243756
    37  H    0.150592
    38  C   -0.554021
    39  H    0.187560
    40  H    0.171746
    41  H    0.171896
    42  C    0.155523
    43  C   -0.205248
    44  C   -0.203201
    45  C   -0.153461
    46  H    0.153919
    47  C   -0.157587
    48  H    0.161588
    49  C   -0.150644
    50  H    0.154004
    51  H    0.153439
    52  H    0.153717
 Sum of Mulliken charges =  -0.00000
 Mulliken charges with hydrogens summed into heavy atoms:
               1
     1  Co   0.317181
     2  N   -0.168563
     3  O   -0.100681
     4  C    0.323825
     5  C    0.056021
     9  N   -0.064602
    10  O   -0.555724
    11  C    0.267165
    12  C    0.017629
    16  N   -0.167263
    17  O   -0.102877
    18  C    0.328702
    19  C    0.056094
    23  N   -0.079272
    24  O   -0.552573
    25  C    0.259460
    26  C    0.015643
    32  C   -0.023213
    35  C    0.226983
    36  C   -0.093163
    38  C   -0.022819
    42  C    0.155523
    43  C   -0.051329
    44  C   -0.041613
    45  C    0.000543
    47  C   -0.004148
    49  C    0.003073
 Electronic spatial extent (au):  <R**2>=          10293.4954
 Charge=             -0.0000 electrons
 Dipole moment (field-independent basis, Debye):
    X=              0.2539    Y=              0.4000    Z=              0.6358  Tot=              0.7929
 Quadrupole moment (field-independent basis, Debye-Ang):
   XX=           -157.7973   YY=           -138.8947   ZZ=           -174.5444
   XY=             18.8771   XZ=             -9.1773   YZ=              8.7000
 Traceless Quadrupole moment (field-independent basis, Debye-Ang):
   XX=             -0.7185   YY=             18.1841   ZZ=            -17.4656
   XY=             18.8771   XZ=             -9.1773   YZ=              8.7000
 Octapole moment (field-independent basis, Debye-Ang**2):
  XXX=             -2.4534  YYY=             20.2497  ZZZ=             11.7319  XYY=            -26.7228
  XXY=            -64.9880  XXZ=             43.7284  XZZ=            -36.9173  YZZ=             14.9182
  YYZ=             21.1740  XYZ=             -3.0537
 Hexadecapole moment (field-independent basis, Debye-Ang**3):
 XXXX=          -7792.1492 YYYY=          -3518.5755 ZZZZ=          -1408.1191 XXXY=            139.0110
 XXXZ=            -20.0450 YYYX=             84.2023 YYYZ=             66.6482 ZZZX=             25.4925
 ZZZY=            -12.5860 XXYY=          -1820.3708 XXZZ=          -1747.6505 YYZZ=           -863.0272
 XXYZ=             -0.6078 YYXZ=            -17.4988 ZZXY=             29.3966
 N-N= 3.001829665980D+03 E-N=-9.195260457565D+03  KE= 1.300226716177D+03
 Unable to Open any file for archive entry.
 1\1\GINC-N204\SP\RB3LYP\GenECP\C18H25Co1N4O4\CJD\02-Mar-2023\0\\# B3LY
 P/genecp em=GD3BJ int=fine scrf=(smd,solvent=acetone)\\Template\\0,1\C
 o,0,-1.266673696,-0.4070884133,-0.2515833691\N,0,-1.7341252119,1.41140
 18047,-0.2446152819\O,0,-0.9643757954,2.4411630853,-0.699294596\C,0,-2
 .8995153328,1.6711190524,0.2559226637\C,0,-3.4826369891,3.0402045724,0
 .3452679722\H,0,-4.4911410023,3.0497555109,-0.0614992434\H,0,-2.856389
 5712,3.7396253192,-0.2026693645\H,0,-3.5342774443,3.3514170551,1.38744
 12158\N,0,-2.8995685587,-0.5958646068,0.6596743479\O,0,-3.369042903,-1
 .728981505,1.0710012606\C,0,-3.5883536554,0.5074763678,0.7571114608\C,
 0,-4.9567863453,0.5731080192,1.3567740295\H,0,-4.9761970394,1.27016070
 44,2.1920319753\H,0,-5.2263485852,-0.4200949689,1.7099967511\H,0,-5.68
 82548218,0.8979443708,0.618244841\N,0,-0.920296365,-2.2357109944,-0.46
 98454953\O,0,-1.5468859297,-3.2593078114,0.1826367797\C,0,-0.010714313
 7,-2.5229891634,-1.3451860723\C,0,0.3786032585,-3.9158232321,-1.708442
 0034\H,0,0.440984529,-4.0228943762,-2.7885308913\H,0,-0.3521576953,-4.
 61335429,-1.3069062766\H,0,1.3536296617,-4.1520369193,-1.2847669957\N,
 0,0.1779290075,-0.2313699572,-1.4672736931\O,0,0.6349864803,0.90008461
 14,-1.9044311744\C,0,0.6176743162,-1.3666803476,-1.9359895029\C,0,1.68
 43282559,-1.4667429876,-2.9804668214\H,0,2.4581392428,-2.1697375105,-2
 .6807651095\H,0,2.1206576827,-0.4792627196,-3.1200909519\H,0,1.2653493
 886,-1.7998565157,-3.9297767141\H,0,-0.2011251813,1.9690745739,-1.2242
 123918\H,0,-2.3462685778,-2.8056421791,0.6503989555\C,0,-0.2943259356,
 -0.3092832388,1.5195891659\H,0,-0.7049201648,0.5854896257,1.9860058507
 \H,0,-0.6084800713,-1.2109866374,2.04304418\C,0,1.1369242028,-0.232946
 6135,1.3034536224\C,0,1.7158762585,0.9920416629,1.1758445087\H,0,1.058
 2458137,1.8462566852,1.2826827607\C,0,1.90796691,-1.5221694037,1.30775
 17749\H,0,2.0966316142,-1.8648191739,0.2921518439\H,0,2.8623305883,-1.
 3922557243,1.81203498\H,0,1.3393673973,-2.2964678713,1.8161954609\C,0,
 3.0979801575,1.3536309584,0.9532616381\C,0,3.5177973032,2.6244222555,1
 .3734591438\C,0,4.0355952981,0.5382919307,0.3107824969\C,0,4.821181965
 5,3.0418358748,1.2004712539\H,0,2.8048347276,3.2795779186,1.8530278736
 \C,0,5.3368705809,0.9658917217,0.1249806338\H,0,3.737905949,-0.4167105
 258,-0.0845171207\C,0,5.7414438695,2.2108850914,0.5784826542\H,0,5.123
 4344059,4.0208226806,1.5434011152\H,0,6.0424730806,0.3230719891,-0.381
 5453263\H,0,6.7612627253,2.5371390902,0.4373079391\\Version=ES64L-G16R
 evC.01\State=1-A\HF=-1365.9319919\RMSD=2.608e-09\Dipole=0.1120055,-0.0
 341723,-0.2891539\Quadrupole=6.3280168,-1.0733639,-5.2546529,-15.53159
 73,-1.5665815,13.5319507\PG=C01 [X(C18H25Co1N4O4)]\\@
 The archive entry for this job was punched.


 MANHOOD BEGINS BY TRYING TO SHAVE FACE,
 AND ENDS BY TRYING TO SAVE FACE.
 Job cpu time:       0 days  0 hours 19 minutes 26.7 seconds.
 Elapsed time:       0 days  0 hours  1 minutes 14.7 seconds.
 File lengths (MBytes):  RWF=    332 Int=      0 D2E=      0 Chk=     14 Scr=      1
 Normal termination of Gaussian 16 at Thu Mar  2 08:49:26 2023.
