 Entering Gaussian System, Link 0=g16
 Initial command:
 /opt/local/g16/l1.exe "/data/tmp/cjd/Gau-616.inp" -scrdir="/data/tmp/cjd/"
 Entering Link 1 = /opt/local/g16/l1.exe PID=       617.
  
 Copyright (c) 1988-2019, Gaussian, Inc.  All Rights Reserved.
  
 This is part of the Gaussian(R) 16 program.  It is based on
 the Gaussian(R) 09 system (copyright 2009, Gaussian, Inc.),
 the Gaussian(R) 03 system (copyright 2003, Gaussian, Inc.),
 the Gaussian(R) 98 system (copyright 1998, Gaussian, Inc.),
 the Gaussian(R) 94 system (copyright 1995, Gaussian, Inc.),
 the Gaussian 92(TM) system (copyright 1992, Gaussian, Inc.),
 the Gaussian 90(TM) system (copyright 1990, Gaussian, Inc.),
 the Gaussian 88(TM) system (copyright 1988, Gaussian, Inc.),
 the Gaussian 86(TM) system (copyright 1986, Carnegie Mellon
 University), and the Gaussian 82(TM) system (copyright 1983,
 Carnegie Mellon University). Gaussian is a federally registered
 trademark of Gaussian, Inc.
  
 This software contains proprietary and confidential information,
 including trade secrets, belonging to Gaussian, Inc.
  
 This software is provided under written license and may be
 used, copied, transmitted, or stored only in accord with that
 written license.
  
 The following legend is applicable only to US Government
 contracts under FAR:
  
                    RESTRICTED RIGHTS LEGEND
  
 Use, reproduction and disclosure by the US Government is
 subject to restrictions as set forth in subparagraphs (a)
 and (c) of the Commercial Computer Software - Restricted
 Rights clause in FAR 52.227-19.
  
 Gaussian, Inc.
 340 Quinnipiac St., Bldg. 40, Wallingford CT 06492
  
  
 ---------------------------------------------------------------
 Warning -- This program may not be used in any manner that
 competes with the business of Gaussian, Inc. or will provide
 assistance to any competitor of Gaussian, Inc.  The licensee
 of this program is prohibited from giving any competitor of
 Gaussian, Inc. access to this program.  By using this program,
 the user acknowledges that Gaussian, Inc. is engaged in the
 business of creating and licensing software in the field of
 computational chemistry and represents and warrants to the
 licensee that it is not a competitor of Gaussian, Inc. and that
 it will not use this program in any manner prohibited above.
 ---------------------------------------------------------------
  

 Cite this work as:
 Gaussian 16, Revision C.01,
 M. J. Frisch, G. W. Trucks, H. B. Schlegel, G. E. Scuseria, 
 M. A. Robb, J. R. Cheeseman, G. Scalmani, V. Barone, 
 G. A. Petersson, H. Nakatsuji, X. Li, M. Caricato, A. V. Marenich, 
 J. Bloino, B. G. Janesko, R. Gomperts, B. Mennucci, H. P. Hratchian, 
 J. V. Ortiz, A. F. Izmaylov, J. L. Sonnenberg, D. Williams-Young, 
 F. Ding, F. Lipparini, F. Egidi, J. Goings, B. Peng, A. Petrone, 
 T. Henderson, D. Ranasinghe, V. G. Zakrzewski, J. Gao, N. Rega, 
 G. Zheng, W. Liang, M. Hada, M. Ehara, K. Toyota, R. Fukuda, 
 J. Hasegawa, M. Ishida, T. Nakajima, Y. Honda, O. Kitao, H. Nakai, 
 T. Vreven, K. Throssell, J. A. Montgomery, Jr., J. E. Peralta, 
 F. Ogliaro, M. J. Bearpark, J. J. Heyd, E. N. Brothers, K. N. Kudin, 
 V. N. Staroverov, T. A. Keith, R. Kobayashi, J. Normand, 
 K. Raghavachari, A. P. Rendell, J. C. Burant, S. S. Iyengar, 
 J. Tomasi, M. Cossi, J. M. Millam, M. Klene, C. Adamo, R. Cammi, 
 J. W. Ochterski, R. L. Martin, K. Morokuma, O. Farkas, 
 J. B. Foresman, and D. J. Fox, Gaussian, Inc., Wallingford CT, 2019.
 
 ******************************************
 Gaussian 16:  ES64L-G16RevC.01  3-Jul-2019
                 2-Mar-2023 
 ******************************************
 %nproc=16
 Will use up to   16 processors via shared memory.
 %mem=60GB
 -----------------------------------------------------------
 # B3LYP/genecp em=GD3BJ int=fine scrf=(smd,solvent=acetone)
 -----------------------------------------------------------
 1/38=1,172=1/1;
 2/12=2,17=6,18=5,40=1/2;
 3/5=7,11=2,16=1,17=8,25=1,30=1,70=32201,72=19,74=-5,75=-4,124=41/1,2,3;
 4//1;
 5/5=2,38=5,53=19/2;
 6/7=2,8=2,9=2,10=2,28=1/1;
 99/5=1,9=1/99;
 --------
 Template
 --------
 Symbolic Z-matrix:
 Charge =  0 Multiplicity = 1
 Co                   -1.05435  -0.64272  -0.58025 
 N                    -0.76153   1.18702  -0.23776 
 O                     0.07459   2.01142  -0.92901 
 C                    -1.46318   1.67788   0.73163 
 C                    -1.42054   3.10669   1.15328 
 H                    -1.10559   3.1776    2.19217 
 H                    -2.40881   3.55487   1.06812 
 H                    -0.71866   3.65036   0.52668 
 N                    -2.16891  -0.50592   0.92826 
 O                    -2.83506  -1.49935   1.4304 
 C                    -2.29265   0.70406   1.39881 
 C                    -3.19067   1.05667   2.5413 
 H                    -3.93659   1.78801   2.23474 
 H                    -2.61598   1.47584   3.36501 
 H                    -3.6941    0.15271   2.87834 
 N                    -1.57779  -2.37259  -1.08342 
 O                    -2.31831  -3.23867  -0.33454 
 C                    -1.20184  -2.736    -2.26733 
 C                    -1.54364  -4.05078  -2.88045 
 H                    -0.65585  -4.6806   -2.91391 
 H                    -1.90334  -3.91521  -3.89737 
 H                    -2.30262  -4.54637  -2.28057 
 N                    -0.15691  -0.68512  -2.24378 
 O                     0.581     0.27903  -2.70062 
 C                    -0.38261  -1.76063  -2.94517 
 C                     0.17442  -1.98519  -4.31469 
 H                     0.81254  -1.14164  -4.57031 
 H                    -0.62518  -2.06003  -5.05027 
 H                     0.75882  -2.90247  -4.3451 
 H                     0.40442   1.4239   -1.71739 
 H                    -2.60926  -2.67733   0.4875 
 C                     0.51156  -1.40858   0.45584 
 H                     0.05539  -2.1757    1.08072 
 H                     1.13214  -1.84132  -0.32865 
 C                     1.20957  -0.39885   1.22969 
 C                     2.17451   0.35138   0.63784 
 H                     2.32058   0.21088  -0.42609 
 C                     0.80906  -0.24896   2.66962 
 H                     1.38992  -0.93262   3.28785 
 H                     0.97392   0.7646    3.02392 
 H                    -0.2387   -0.50773   2.7929 
 C                     2.99447   1.39672   1.21853 
 C                     3.33686   2.49173   0.41559 
 C                     3.489     1.3566    2.52521 
 C                     4.10093   3.52693   0.91534 
 H                     2.96842   2.53155  -0.59855 
 C                     4.27067   2.3867    3.01531 
 H                     3.29872   0.4956    3.14455 
 C                     4.57013   3.48087   2.21989 
 H                     4.34012   4.37125   0.28496 
 H                     4.652     2.33448   4.02498 
 H                     5.17497   4.28686   2.60869 
 
 Stoichiometry    C18H25CoN4O4
 Framework group  C1[X(C18H25CoN4O4)]
 Deg. of freedom   150
 Full point group                 C1      NOp   1
 Largest Abelian subgroup         C1      NOp   1
 Largest concise Abelian subgroup C1      NOp   1
                         Standard orientation:                         
 ---------------------------------------------------------------------
 Center     Atomic      Atomic             Coordinates (Angstroms)
 Number     Number       Type             X           Y           Z
 ---------------------------------------------------------------------
      1         27           0        1.362559    0.224819    0.219790
      2          7           0       -0.132871    0.552435    1.318579
      3          8           0       -0.843422   -0.381986    2.010328
      4          6           0       -0.465383    1.797670    1.427319
      5          6           0       -1.590878    2.290937    2.270560
      6          1           0       -2.318937    2.809895    1.650776
      7          1           0       -1.223242    2.991023    3.018563
      8          1           0       -2.072006    1.450444    2.763421
      9          7           0        1.254426    2.078342   -0.079056
     10          8           0        2.055604    2.735126   -0.859797
     11          6           0        0.346582    2.686793    0.632559
     12          6           0        0.140987    4.167828    0.615115
     13          1           0        0.284696    4.589396    1.608519
     14          1           0       -0.865696    4.410897    0.280479
     15          1           0        0.863008    4.610046   -0.068488
     16          7           0        3.013024   -0.038710   -0.632348
     17          8           0        3.663707    0.862824   -1.421731
     18          6           0        3.567218   -1.186916   -0.409747
     19          6           0        4.895617   -1.587661   -0.953936
     20          1           0        4.760349   -2.329754   -1.739410
     21          1           0        5.510805   -2.027144   -0.172719
     22          1           0        5.394260   -0.718430   -1.375022
     23          7           0        1.618171   -1.570930    0.753148
     24          8           0        0.769838   -2.250657    1.461030
     25          6           0        2.765609   -2.076121    0.395666
     26          6           0        3.207836   -3.458149    0.757231
     27          1           0        2.402429   -3.946813    1.301878
     28          1           0        4.094823   -3.428002    1.388419
     29          1           0        3.439641   -4.032703   -0.137197
     30          1           0       -0.305621   -1.257049    1.866975
     31          1           0        3.102575    1.730186   -1.330588
     32          6           0        0.391071   -0.262772   -1.492098
     33          1           0        0.862192    0.369774   -2.243739
     34          1           0        0.649971   -1.312892   -1.626382
     35          6           0       -1.040571   -0.046268   -1.396425
     36          6           0       -1.830665   -1.012682   -0.861607
     37          1           0       -1.331547   -1.881285   -0.449994
     38          6           0       -1.565486    1.264127   -1.909850
     39          1           0       -1.784035    1.183197   -2.974128
     40          1           0       -2.472957    1.558921   -1.390622
     41          1           0       -0.813558    2.038728   -1.789157
     42          6           0       -3.269128   -1.010580   -0.679708
     43          6           0       -3.792915   -1.636189    0.458389
     44          6           0       -4.164085   -0.446999   -1.593500
     45          6           0       -5.152391   -1.653418    0.696535
     46          1           0       -3.113286   -2.082909    1.168565
     47          6           0       -5.526669   -0.484058   -1.360479
     48          1           0       -3.795319   -0.018462   -2.510814
     49          6           0       -6.026966   -1.074640   -0.211351
     50          1           0       -5.535642   -2.126401    1.589214
     51          1           0       -6.204332   -0.051409   -2.082395
     52          1           0       -7.091432   -1.095197   -0.029404
 ---------------------------------------------------------------------
 Rotational constants (GHZ):           0.2821181           0.1314191           0.1110915
 General basis read from cards:  (5D, 7F)
 ======================================================================================================
                                       Pseudopotential Parameters
 ======================================================================================================
  Center     Atomic      Valence      Angular      Power
  Number     Number     Electrons     Momentum     of R      Exponent        Coefficient   SO-Coeffient
 ======================================================================================================
    1         27           17
                                      D and up 
                                                     1      434.1076104      -10.00000000    0.00000000
                                                     2       78.8402758      -66.72402760    0.00000000
                                                     2       19.6037749      -11.71922430    0.00000000
                                      S - D
                                                     0      151.2307582        3.00000000    0.00000000
                                                     1      169.6790026       20.15531100    0.00000000
                                                     2       64.9909423      413.37622440    0.00000000
                                                     2       12.5076287      133.87277050    0.00000000
                                      P - D
                                                     0       92.7319924        5.00000000    0.00000000
                                                     1      121.1910183        6.18923530    0.00000000
                                                     2       48.6265909      326.32159190    0.00000000
                                                     2       11.9966971       73.87889700    0.00000000
    2          7
                                   No pseudopotential on this center.
    3          8
                                   No pseudopotential on this center.
    4          6
                                   No pseudopotential on this center.
    5          6
                                   No pseudopotential on this center.
    6          1
                                   No pseudopotential on this center.
    7          1
                                   No pseudopotential on this center.
    8          1
                                   No pseudopotential on this center.
    9          7
                                   No pseudopotential on this center.
   10          8
                                   No pseudopotential on this center.
   11          6
                                   No pseudopotential on this center.
   12          6
                                   No pseudopotential on this center.
   13          1
                                   No pseudopotential on this center.
   14          1
                                   No pseudopotential on this center.
   15          1
                                   No pseudopotential on this center.
   16          7
                                   No pseudopotential on this center.
   17          8
                                   No pseudopotential on this center.
   18          6
                                   No pseudopotential on this center.
   19          6
                                   No pseudopotential on this center.
   20          1
                                   No pseudopotential on this center.
   21          1
                                   No pseudopotential on this center.
   22          1
                                   No pseudopotential on this center.
   23          7
                                   No pseudopotential on this center.
   24          8
                                   No pseudopotential on this center.
   25          6
                                   No pseudopotential on this center.
   26          6
                                   No pseudopotential on this center.
   27          1
                                   No pseudopotential on this center.
   28          1
                                   No pseudopotential on this center.
   29          1
                                   No pseudopotential on this center.
   30          1
                                   No pseudopotential on this center.
   31          1
                                   No pseudopotential on this center.
   32          6
                                   No pseudopotential on this center.
   33          1
                                   No pseudopotential on this center.
   34          1
                                   No pseudopotential on this center.
   35          6
                                   No pseudopotential on this center.
   36          6
                                   No pseudopotential on this center.
   37          1
                                   No pseudopotential on this center.
   38          6
                                   No pseudopotential on this center.
   39          1
                                   No pseudopotential on this center.
   40          1
                                   No pseudopotential on this center.
   41          1
                                   No pseudopotential on this center.
   42          6
                                   No pseudopotential on this center.
   43          6
                                   No pseudopotential on this center.
   44          6
                                   No pseudopotential on this center.
   45          6
                                   No pseudopotential on this center.
   46          1
                                   No pseudopotential on this center.
   47          6
                                   No pseudopotential on this center.
   48          1
                                   No pseudopotential on this center.
   49          6
                                   No pseudopotential on this center.
   50          1
                                   No pseudopotential on this center.
   51          1
                                   No pseudopotential on this center.
   52          1
                                   No pseudopotential on this center.
 ======================================================================================================
 There are   464 symmetry adapted cartesian basis functions of A   symmetry.
 There are   436 symmetry adapted basis functions of A   symmetry.
   436 basis functions,   880 primitive gaussians,   464 cartesian basis functions
   105 alpha electrons      105 beta electrons
       nuclear repulsion energy      3002.7307447674 Hartrees.
 NAtoms=   52 NActive=   52 NUniq=   52 SFac= 1.00D+00 NAtFMM=   60 NAOKFM=F Big=F
 Integral buffers will be    131072 words long.
 Raffenetti 2 integral format.
 Two-electron integral symmetry is turned on.
 Nuclear repulsion after empirical dispersion term =     3002.6061730740 Hartrees.
 ------------------------------------------------------------------------------
 Polarizable Continuum Model (PCM)
 =================================
 Model                : PCM.
 Atomic radii         : SMD-Coulomb.
 Polarization charges : Total charges.
 Charge compensation  : None.
 Solution method      : On-the-fly selection.
 Cavity type          : VdW (van der Waals Surface) (Alpha=1.000).
 Cavity algorithm     : GePol (No added spheres)
                        Default sphere list used, NSphG=   52.
                        Lebedev-Laikov grids with approx.  5.0 points / Ang**2.
                        Smoothing algorithm: York/Karplus (Gamma=1.0000).
                        Polarization charges: spherical gaussians, with
                                              point-specific exponents (IZeta= 3).
                        Self-potential: point-specific (ISelfS= 7).
                        Self-field    : sphere-specific E.n sum rule (ISelfD= 2).
 Solvent              : Acetone, Eps=  20.493000 Eps(inf)=   1.846337
 ------------------------------------------------------------------------------
 ------------------------------------------------------------------------------
 Atomic radii for non-electrostatic terms: SMD-CDS.
 ------------------------------------------------------------------------------
 Nuclear repulsion after PCM non-electrostatic terms =     3002.5996943954 Hartrees.
 One-electron integrals computed using PRISM.
   1 Symmetry operations used in ECPInt.
 ECPInt:  NShTT=   13203 NPrTT=   81964 LenC2=   11344 LenP2D=   39374.
 LDataN:  DoStor=T MaxTD1= 4 Len=   56
 NBasis=   436 RedAO= T EigKep=  4.38D-04  NBF=   436
 NBsUse=   436 1.00D-06 EigRej= -1.00D+00 NBFU=   436
 ExpMin= 2.30D-02 ExpMax= 5.48D+03 ExpMxC= 8.25D+02 IAcc=3 IRadAn=         5 AccDes= 0.00D+00
 Harris functional with IExCor=  402 and IRadAn=       5 diagonalized for initial guess.
 HarFok:  IExCor=  402 AccDes= 0.00D+00 IRadAn=         5 IDoV= 1 UseB2=F ITyADJ=14
 ICtDFT=  3500011 ScaDFX=  1.000000  1.000000  1.000000  1.000000
 FoFCou: FMM=F IPFlag=           0 FMFlag=      100000 FMFlg1=           0
         NFxFlg=           0 DoJE=T BraDBF=F KetDBF=T FulRan=T
         wScrn=  0.000000 ICntrl=       500 IOpCl=  0 I1Cent=   200000004 NGrid=           0
         NMat0=    1 NMatS0=      1 NMatT0=    0 NMatD0=    1 NMtDS0=    0 NMtDT0=    0
 Petite list used in FoFCou.
 Requested convergence on RMS density matrix=1.00D-08 within 128 cycles.
 Requested convergence on MAX density matrix=1.00D-06.
 Requested convergence on             energy=1.00D-06.
 No special actions if energy rises.
 Inv3:  Mode=1 IEnd=    40583052.
 Iteration    1 A*A^-1 deviation from unit magnitude is 3.77D-15 for   2388.
 Iteration    1 A*A^-1 deviation from orthogonality  is 2.22D-15 for   2308    743.
 Iteration    1 A^-1*A deviation from unit magnitude is 3.77D-15 for   2388.
 Iteration    1 A^-1*A deviation from orthogonality  is 6.42D-14 for   1648   1610.
 EnCoef did     5 forward-backward iterations
 Restarting incremental Fock formation.
 Error on total polarization charges =  0.04571
 SCF Done:  E(RB3LYP) =  -1365.93179269     A.U. after   21 cycles
            NFock= 21  Conv=0.25D-08     -V/T= 2.0505
 SMD-CDS (non-electrostatic) energy       (kcal/mol) =      -4.07
 (included in total energy above)

 **********************************************************************

            Population analysis using the SCF Density.

 **********************************************************************

 Orbital symmetries:
       Occupied  (A) (A) (A) (A) (A) (A) (A) (A) (A) (A) (A) (A)
                 (A) (A) (A) (A) (A) (A) (A) (A) (A) (A) (A) (A)
                 (A) (A) (A) (A) (A) (A) (A) (A) (A) (A) (A) (A)
                 (A) (A) (A) (A) (A) (A) (A) (A) (A) (A) (A) (A)
                 (A) (A) (A) (A) (A) (A) (A) (A) (A) (A) (A) (A)
                 (A) (A) (A) (A) (A) (A) (A) (A) (A) (A) (A) (A)
                 (A) (A) (A) (A) (A) (A) (A) (A) (A) (A) (A) (A)
                 (A) (A) (A) (A) (A) (A) (A) (A) (A) (A) (A) (A)
                 (A) (A) (A) (A) (A) (A) (A) (A) (A)
       Virtual   (A) (A) (A) (A) (A) (A) (A) (A) (A) (A) (A) (A)
                 (A) (A) (A) (A) (A) (A) (A) (A) (A) (A) (A) (A)
                 (A) (A) (A) (A) (A) (A) (A) (A) (A) (A) (A) (A)
                 (A) (A) (A) (A) (A) (A) (A) (A) (A) (A) (A) (A)
                 (A) (A) (A) (A) (A) (A) (A) (A) (A) (A) (A) (A)
                 (A) (A) (A) (A) (A) (A) (A) (A) (A) (A) (A) (A)
                 (A) (A) (A) (A) (A) (A) (A) (A) (A) (A) (A) (A)
                 (A) (A) (A) (A) (A) (A) (A) (A) (A) (A) (A) (A)
                 (A) (A) (A) (A) (A) (A) (A) (A) (A) (A) (A) (A)
                 (A) (A) (A) (A) (A) (A) (A) (A) (A) (A) (A) (A)
                 (A) (A) (A) (A) (A) (A) (A) (A) (A) (A) (A) (A)
                 (A) (A) (A) (A) (A) (A) (A) (A) (A) (A) (A) (A)
                 (A) (A) (A) (A) (A) (A) (A) (A) (A) (A) (A) (A)
                 (A) (A) (A) (A) (A) (A) (A) (A) (A) (A) (A) (A)
                 (A) (A) (A) (A) (A) (A) (A) (A) (A) (A) (A) (A)
                 (A) (A) (A) (A) (A) (A) (A) (A) (A) (A) (A) (A)
                 (A) (A) (A) (A) (A) (A) (A) (A) (A) (A) (A) (A)
                 (A) (A) (A) (A) (A) (A) (A) (A) (A) (A) (A) (A)
                 (A) (A) (A) (A) (A) (A) (A) (A) (A) (A) (A) (A)
                 (A) (A) (A) (A) (A) (A) (A) (A) (A) (A) (A) (A)
                 (A) (A) (A) (A) (A) (A) (A) (A) (A) (A) (A) (A)
                 (A) (A) (A) (A) (A) (A) (A) (A) (A) (A) (A) (A)
                 (A) (A) (A) (A) (A) (A) (A) (A) (A) (A) (A) (A)
                 (A) (A) (A) (A) (A) (A) (A) (A) (A) (A) (A) (A)
                 (A) (A) (A) (A) (A) (A) (A) (A) (A) (A) (A) (A)
                 (A) (A) (A) (A) (A) (A) (A) (A) (A) (A) (A) (A)
                 (A) (A) (A) (A) (A) (A) (A) (A) (A) (A) (A) (A)
                 (A) (A) (A) (A) (A) (A) (A)
 The electronic state is 1-A.
 Alpha  occ. eigenvalues --  -19.16647 -19.16491 -19.12767 -19.12654 -14.40942
 Alpha  occ. eigenvalues --  -14.40939 -14.40604 -14.40387 -10.23635 -10.23471
 Alpha  occ. eigenvalues --  -10.21401 -10.21321 -10.18474 -10.18406 -10.17510
 Alpha  occ. eigenvalues --  -10.17478 -10.17458 -10.17443 -10.17435 -10.17401
 Alpha  occ. eigenvalues --  -10.17369 -10.17325 -10.16934 -10.16823 -10.16796
 Alpha  occ. eigenvalues --  -10.15821  -3.74450  -2.44483  -2.43664  -2.42617
 Alpha  occ. eigenvalues --   -1.09064  -1.08525  -1.06863  -1.06325  -0.90599
 Alpha  occ. eigenvalues --   -0.89389  -0.85737  -0.81915  -0.80934  -0.80576
 Alpha  occ. eigenvalues --   -0.75270  -0.74630  -0.74174  -0.74160  -0.70647
 Alpha  occ. eigenvalues --   -0.70517  -0.68427  -0.66393  -0.62314  -0.60296
 Alpha  occ. eigenvalues --   -0.60011  -0.58747  -0.54906  -0.53530  -0.52905
 Alpha  occ. eigenvalues --   -0.52092  -0.51293  -0.50845  -0.49453  -0.48990
 Alpha  occ. eigenvalues --   -0.47613  -0.47031  -0.46627  -0.46049  -0.45262
 Alpha  occ. eigenvalues --   -0.44473  -0.43381  -0.42782  -0.42276  -0.42235
 Alpha  occ. eigenvalues --   -0.42010  -0.41853  -0.41555  -0.40935  -0.40563
 Alpha  occ. eigenvalues --   -0.39980  -0.39638  -0.39287  -0.38802  -0.38250
 Alpha  occ. eigenvalues --   -0.38105  -0.38026  -0.37597  -0.37383  -0.36742
 Alpha  occ. eigenvalues --   -0.36477  -0.34961  -0.34307  -0.34216  -0.33230
 Alpha  occ. eigenvalues --   -0.32895  -0.30923  -0.30422  -0.28293  -0.28014
 Alpha  occ. eigenvalues --   -0.27737  -0.26410  -0.26229  -0.25119  -0.25025
 Alpha  occ. eigenvalues --   -0.24895  -0.22370  -0.20201  -0.19808  -0.19456
 Alpha virt. eigenvalues --   -0.09151  -0.03742  -0.03354  -0.00426   0.00270
 Alpha virt. eigenvalues --    0.00531   0.02580   0.02817   0.03350   0.05969
 Alpha virt. eigenvalues --    0.06717   0.06820   0.07830   0.11028   0.12235
 Alpha virt. eigenvalues --    0.12529   0.13625   0.14477   0.14740   0.15050
 Alpha virt. eigenvalues --    0.15331   0.16050   0.16481   0.16823   0.17147
 Alpha virt. eigenvalues --    0.17548   0.17988   0.18307   0.18669   0.18804
 Alpha virt. eigenvalues --    0.19244   0.19445   0.20016   0.20211   0.21433
 Alpha virt. eigenvalues --    0.21838   0.22616   0.23120   0.23691   0.24724
 Alpha virt. eigenvalues --    0.25108   0.25449   0.25867   0.25956   0.26854
 Alpha virt. eigenvalues --    0.27194   0.28175   0.28667   0.29557   0.30154
 Alpha virt. eigenvalues --    0.30725   0.31938   0.32257   0.33135   0.34430
 Alpha virt. eigenvalues --    0.35140   0.36332   0.36699   0.40339   0.41201
 Alpha virt. eigenvalues --    0.42230   0.42602   0.42792   0.45034   0.46962
 Alpha virt. eigenvalues --    0.48182   0.50497   0.50997   0.52079   0.52980
 Alpha virt. eigenvalues --    0.53753   0.53995   0.54999   0.55606   0.56096
 Alpha virt. eigenvalues --    0.56532   0.57516   0.57958   0.58172   0.58448
 Alpha virt. eigenvalues --    0.59651   0.59860   0.60440   0.60609   0.60863
 Alpha virt. eigenvalues --    0.60981   0.61869   0.62428   0.63088   0.63349
 Alpha virt. eigenvalues --    0.64262   0.65174   0.65295   0.66805   0.67666
 Alpha virt. eigenvalues --    0.68195   0.69032   0.69388   0.69945   0.70506
 Alpha virt. eigenvalues --    0.71263   0.72171   0.72558   0.73774   0.74585
 Alpha virt. eigenvalues --    0.75113   0.75879   0.76437   0.77216   0.78259
 Alpha virt. eigenvalues --    0.78795   0.80110   0.81722   0.82046   0.83078
 Alpha virt. eigenvalues --    0.84039   0.84244   0.84594   0.85114   0.85286
 Alpha virt. eigenvalues --    0.85588   0.85774   0.86908   0.87178   0.87356
 Alpha virt. eigenvalues --    0.87940   0.89289   0.89766   0.90188   0.90347
 Alpha virt. eigenvalues --    0.90640   0.91370   0.91421   0.92008   0.92379
 Alpha virt. eigenvalues --    0.93217   0.93669   0.94497   0.95065   0.95827
 Alpha virt. eigenvalues --    0.96323   0.96768   0.96994   0.97784   0.99440
 Alpha virt. eigenvalues --    0.99999   1.00366   1.01028   1.02777   1.02902
 Alpha virt. eigenvalues --    1.03941   1.04114   1.04754   1.05294   1.05599
 Alpha virt. eigenvalues --    1.06787   1.08350   1.09144   1.10092   1.10952
 Alpha virt. eigenvalues --    1.11363   1.12100   1.13052   1.14936   1.15524
 Alpha virt. eigenvalues --    1.16586   1.17885   1.19392   1.20951   1.21723
 Alpha virt. eigenvalues --    1.22455   1.24317   1.24825   1.25628   1.27000
 Alpha virt. eigenvalues --    1.28595   1.28922   1.29519   1.30771   1.31624
 Alpha virt. eigenvalues --    1.33574   1.33989   1.35289   1.35645   1.36881
 Alpha virt. eigenvalues --    1.37062   1.37986   1.38437   1.39050   1.39346
 Alpha virt. eigenvalues --    1.39513   1.40919   1.42280   1.43455   1.44919
 Alpha virt. eigenvalues --    1.45174   1.45813   1.46453   1.49015   1.49907
 Alpha virt. eigenvalues --    1.50693   1.50764   1.51880   1.52142   1.53348
 Alpha virt. eigenvalues --    1.54927   1.59595   1.60692   1.62225   1.62966
 Alpha virt. eigenvalues --    1.65603   1.68654   1.70763   1.74133   1.74717
 Alpha virt. eigenvalues --    1.75268   1.76402   1.76985   1.77957   1.78667
 Alpha virt. eigenvalues --    1.78931   1.80073   1.80355   1.81037   1.81605
 Alpha virt. eigenvalues --    1.82247   1.82543   1.82973   1.83874   1.85343
 Alpha virt. eigenvalues --    1.87112   1.88319   1.89745   1.90300   1.90837
 Alpha virt. eigenvalues --    1.91839   1.92391   1.93065   1.94016   1.95040
 Alpha virt. eigenvalues --    1.96211   1.96661   1.98106   1.99108   1.99678
 Alpha virt. eigenvalues --    2.00162   2.00615   2.01879   2.02846   2.05643
 Alpha virt. eigenvalues --    2.06610   2.09645   2.10207   2.11915   2.12335
 Alpha virt. eigenvalues --    2.13135   2.13799   2.14739   2.15071   2.16196
 Alpha virt. eigenvalues --    2.16683   2.17707   2.19398   2.20024   2.20881
 Alpha virt. eigenvalues --    2.21573   2.23684   2.24137   2.26837   2.28206
 Alpha virt. eigenvalues --    2.28310   2.29367   2.30106   2.31040   2.32190
 Alpha virt. eigenvalues --    2.32916   2.33054   2.33632   2.34120   2.34262
 Alpha virt. eigenvalues --    2.34433   2.35734   2.36546   2.37442   2.39712
 Alpha virt. eigenvalues --    2.40017   2.44836   2.45435   2.46351   2.51356
 Alpha virt. eigenvalues --    2.51896   2.52554   2.53017   2.54524   2.55684
 Alpha virt. eigenvalues --    2.56729   2.57621   2.58244   2.59896   2.60657
 Alpha virt. eigenvalues --    2.64289   2.64598   2.64962   2.65878   2.66282
 Alpha virt. eigenvalues --    2.67850   2.68711   2.71109   2.74844   2.76220
 Alpha virt. eigenvalues --    2.76866   2.77290   2.78323   2.81998   2.85675
 Alpha virt. eigenvalues --    2.87273   2.90957   2.91737   2.93385   2.96072
 Alpha virt. eigenvalues --    3.02862   3.05347   3.05562   3.08506   3.10177
 Alpha virt. eigenvalues --    3.11507   3.20500   3.29624   3.32589   3.46530
 Alpha virt. eigenvalues --   21.75658
          Condensed to atoms (all electrons):
 Mulliken charges:
               1
     1  Co   0.321766
     2  N   -0.171892
     3  O   -0.567063
     4  C    0.326789
     5  C   -0.548633
     6  H    0.202237
     7  H    0.200433
     8  H    0.201043
     9  N   -0.077548
    10  O   -0.559794
    11  C    0.270290
    12  C   -0.548909
    13  H    0.187716
    14  H    0.187639
    15  H    0.190502
    16  N   -0.159297
    17  O   -0.572945
    18  C    0.323855
    19  C   -0.545427
    20  H    0.205407
    21  H    0.198440
    22  H    0.200368
    23  N   -0.078179
    24  O   -0.555914
    25  C    0.270441
    26  C   -0.548099
    27  H    0.190493
    28  H    0.189425
    29  H    0.187229
    30  H    0.472155
    31  H    0.470854
    32  C   -0.402882
    33  H    0.189569
    34  H    0.195148
    35  C    0.231191
    36  C   -0.246099
    37  H    0.148787
    38  C   -0.555039
    39  H    0.180249
    40  H    0.169069
    41  H    0.181354
    42  C    0.139484
    43  C   -0.196789
    44  C   -0.200248
    45  C   -0.156330
    46  H    0.153524
    47  C   -0.158661
    48  H    0.158890
    49  C   -0.151973
    50  H    0.152676
    51  H    0.152589
    52  H    0.152109
 Sum of Mulliken charges =  -0.00000
 Mulliken charges with hydrogens summed into heavy atoms:
               1
     1  Co   0.321766
     2  N   -0.171892
     3  O   -0.094907
     4  C    0.326789
     5  C    0.055080
     9  N   -0.077548
    10  O   -0.559794
    11  C    0.270290
    12  C    0.016948
    16  N   -0.159297
    17  O   -0.102091
    18  C    0.323855
    19  C    0.058788
    23  N   -0.078179
    24  O   -0.555914
    25  C    0.270441
    26  C    0.019048
    32  C   -0.018164
    35  C    0.231191
    36  C   -0.097311
    38  C   -0.024368
    42  C    0.139484
    43  C   -0.043266
    44  C   -0.041358
    45  C   -0.003654
    47  C   -0.006072
    49  C    0.000136
 Electronic spatial extent (au):  <R**2>=          10298.1996
 Charge=              0.0000 electrons
 Dipole moment (field-independent basis, Debye):
    X=              0.1597    Y=              0.4147    Z=              0.7396  Tot=              0.8628
 Quadrupole moment (field-independent basis, Debye-Ang):
   XX=           -147.7326   YY=           -160.1186   ZZ=           -164.3049
   XY=            -22.8637   XZ=              3.2986   YZ=             10.3533
 Traceless Quadrupole moment (field-independent basis, Debye-Ang):
   XX=              9.6528   YY=             -2.7332   ZZ=             -6.9196
   XY=            -22.8637   XZ=              3.2986   YZ=             10.3533
 Octapole moment (field-independent basis, Debye-Ang**2):
  XXX=             64.9168  YYY=             26.5240  ZZZ=              9.6801  XYY=             31.1002
  XXY=            -64.1496  XXZ=             17.2834  XZZ=              7.0824  YZZ=             20.0218
  YYZ=             29.8172  XYZ=             26.6044
 Hexadecapole moment (field-independent basis, Debye-Ang**3):
 XXXX=          -7782.0460 YYYY=          -3387.8767 ZZZZ=          -1561.4896 XXXY=           -244.8982
 XXXZ=             16.7586 YYYX=           -166.1539 YYYZ=             76.5270 ZZZX=             -7.8023
 ZZZY=              2.4935 XXYY=          -1966.7099 XXZZ=          -1655.5809 YYZZ=           -815.0907
 XXYZ=            -52.2657 YYXZ=            -58.6200 ZZXY=            -24.8859
 N-N= 3.002599694395D+03 E-N=-9.196746740204D+03  KE= 1.300227388334D+03
 Unable to Open any file for archive entry.
 1\1\GINC-N204\SP\RB3LYP\GenECP\C18H25Co1N4O4\CJD\02-Mar-2023\0\\# B3LY
 P/genecp em=GD3BJ int=fine scrf=(smd,solvent=acetone)\\Template\\0,1\C
 o,0,-1.054346794,-0.6427175932,-0.5802481878\N,0,-0.7615250075,1.18702
 00071,-0.2377640284\O,0,0.0745887025,2.0114226717,-0.9290055475\C,0,-1
 .4631844934,1.6778819058,0.7316317294\C,0,-1.420541082,3.1066943684,1.
 1532750466\H,0,-1.1055924409,3.1776003649,2.1921682499\H,0,-2.40881054
 86,3.554865717,1.0681174064\H,0,-0.7186598731,3.6503554656,0.526680696
 9\N,0,-2.1689074348,-0.5059171992,0.9282583723\O,0,-2.8350596043,-1.49
 93458817,1.4304021341\C,0,-2.2926535088,0.7040635744,1.3988119162\C,0,
 -3.1906723267,1.0566687158,2.5412970861\H,0,-3.9365867077,1.7880072069
 ,2.2347400874\H,0,-2.615982961,1.4758389195,3.3650099137\H,0,-3.694102
 4639,0.1527100787,2.8783440944\N,0,-1.5777921128,-2.3725871275,-1.0834
 16528\O,0,-2.3183086214,-3.2386667921,-0.3345373382\C,0,-1.2018393847,
 -2.7360019462,-2.2673283393\C,0,-1.5436377261,-4.0507788689,-2.8804501
 704\H,0,-0.6558487057,-4.6806034853,-2.9139061807\H,0,-1.9033433293,-3
 .9152125223,-3.8973745113\H,0,-2.3026179132,-4.5463688746,-2.280566194
 3\N,0,-0.1569061632,-0.685115731,-2.243775372\O,0,0.581003061,0.279029
 1186,-2.700622364\C,0,-0.3826051008,-1.7606332866,-2.9451657593\C,0,0.
 1744220831,-1.9851899776,-4.3146872615\H,0,0.8125373529,-1.1416376569,
 -4.5703073804\H,0,-0.6251827665,-2.0600313008,-5.0502708873\H,0,0.7588
 236894,-2.9024680035,-4.3451048685\H,0,0.4044162115,1.42389815,-1.7173
 8605\H,0,-2.6092581137,-2.6773265592,0.4874950602\C,0,0.5115595874,-1.
 4085819682,0.4558408511\H,0,0.0553876523,-2.1756986294,1.0807181652\H,
 0,1.1321429453,-1.8413197689,-0.328651012\C,0,1.2095710219,-0.39884582
 73,1.2296884855\C,0,2.1745136701,0.3513768798,0.6378395926\H,0,2.32057
 52622,0.2108763106,-0.4260873668\C,0,0.8090596127,-0.2489557225,2.6696
 196851\H,0,1.3899153527,-0.9326210556,3.2878500421\H,0,0.9739235264,0.
 7646015771,3.0239171961\H,0,-0.2387040013,-0.5077259544,2.7928991597\C
 ,0,2.9944717309,1.3967178223,1.2185274883\C,0,3.3368617497,2.491733751
 3,0.4155858076\C,0,3.4890007768,1.356599248,2.5252097813\C,0,4.1009314
 969,3.526928058,0.9153429428\H,0,2.9684191393,2.5315510805,-0.59854855
 \C,0,4.2706732453,2.3866962892,3.0153078176\H,0,3.2987239736,0.4956020
 656,3.1445451051\C,0,4.5701334418,3.4808700542,2.2198927119\H,0,4.3401
 188491,4.3712506611,0.2849631487\H,0,4.6519987882,2.3344750395,4.02498
 09622\H,0,5.1749730789,4.2868625501,2.6086858865\\Version=ES64L-G16Rev
 C.01\State=1-A\HF=-1365.9317927\RMSD=2.510e-09\Dipole=-0.2589108,0.207
 4848,-0.0717988\Quadrupole=-8.5218937,2.7665694,5.7553243,-6.4447452,5
 .9806145,16.1636952\PG=C01 [X(C18H25Co1N4O4)]\\@
 The archive entry for this job was punched.


 MAN IS A SINGULAR CREATURE.  HE HAS A SET OF GIFTS
 WHICH MAKE HIM UNIQUE AMONG THE ANIMALS: SO THAT, 
 UNLIKE THEM, HE IS NOT A FIGURE IN THE LANDSCAPE --
 HE IS A SHAPER OF THE LANDSCAPE.

                       -- JACOB BRONOWSKI
 Job cpu time:       0 days  0 hours 20 minutes  4.8 seconds.
 Elapsed time:       0 days  0 hours  1 minutes 17.2 seconds.
 File lengths (MBytes):  RWF=    330 Int=      0 D2E=      0 Chk=     14 Scr=      1
 Normal termination of Gaussian 16 at Thu Mar  2 08:28:34 2023.
