 Entering Gaussian System, Link 0=g16
 Initial command:
 /opt/local/g16/l1.exe "/data/tmp/cjd/Gau-64236.inp" -scrdir="/data/tmp/cjd/"
 Entering Link 1 = /opt/local/g16/l1.exe PID=     64237.
  
 Copyright (c) 1988-2019, Gaussian, Inc.  All Rights Reserved.
  
 This is part of the Gaussian(R) 16 program.  It is based on
 the Gaussian(R) 09 system (copyright 2009, Gaussian, Inc.),
 the Gaussian(R) 03 system (copyright 2003, Gaussian, Inc.),
 the Gaussian(R) 98 system (copyright 1998, Gaussian, Inc.),
 the Gaussian(R) 94 system (copyright 1995, Gaussian, Inc.),
 the Gaussian 92(TM) system (copyright 1992, Gaussian, Inc.),
 the Gaussian 90(TM) system (copyright 1990, Gaussian, Inc.),
 the Gaussian 88(TM) system (copyright 1988, Gaussian, Inc.),
 the Gaussian 86(TM) system (copyright 1986, Carnegie Mellon
 University), and the Gaussian 82(TM) system (copyright 1983,
 Carnegie Mellon University). Gaussian is a federally registered
 trademark of Gaussian, Inc.
  
 This software contains proprietary and confidential information,
 including trade secrets, belonging to Gaussian, Inc.
  
 This software is provided under written license and may be
 used, copied, transmitted, or stored only in accord with that
 written license.
  
 The following legend is applicable only to US Government
 contracts under FAR:
  
                    RESTRICTED RIGHTS LEGEND
  
 Use, reproduction and disclosure by the US Government is
 subject to restrictions as set forth in subparagraphs (a)
 and (c) of the Commercial Computer Software - Restricted
 Rights clause in FAR 52.227-19.
  
 Gaussian, Inc.
 340 Quinnipiac St., Bldg. 40, Wallingford CT 06492
  
  
 ---------------------------------------------------------------
 Warning -- This program may not be used in any manner that
 competes with the business of Gaussian, Inc. or will provide
 assistance to any competitor of Gaussian, Inc.  The licensee
 of this program is prohibited from giving any competitor of
 Gaussian, Inc. access to this program.  By using this program,
 the user acknowledges that Gaussian, Inc. is engaged in the
 business of creating and licensing software in the field of
 computational chemistry and represents and warrants to the
 licensee that it is not a competitor of Gaussian, Inc. and that
 it will not use this program in any manner prohibited above.
 ---------------------------------------------------------------
  

 Cite this work as:
 Gaussian 16, Revision C.01,
 M. J. Frisch, G. W. Trucks, H. B. Schlegel, G. E. Scuseria, 
 M. A. Robb, J. R. Cheeseman, G. Scalmani, V. Barone, 
 G. A. Petersson, H. Nakatsuji, X. Li, M. Caricato, A. V. Marenich, 
 J. Bloino, B. G. Janesko, R. Gomperts, B. Mennucci, H. P. Hratchian, 
 J. V. Ortiz, A. F. Izmaylov, J. L. Sonnenberg, D. Williams-Young, 
 F. Ding, F. Lipparini, F. Egidi, J. Goings, B. Peng, A. Petrone, 
 T. Henderson, D. Ranasinghe, V. G. Zakrzewski, J. Gao, N. Rega, 
 G. Zheng, W. Liang, M. Hada, M. Ehara, K. Toyota, R. Fukuda, 
 J. Hasegawa, M. Ishida, T. Nakajima, Y. Honda, O. Kitao, H. Nakai, 
 T. Vreven, K. Throssell, J. A. Montgomery, Jr., J. E. Peralta, 
 F. Ogliaro, M. J. Bearpark, J. J. Heyd, E. N. Brothers, K. N. Kudin, 
 V. N. Staroverov, T. A. Keith, R. Kobayashi, J. Normand, 
 K. Raghavachari, A. P. Rendell, J. C. Burant, S. S. Iyengar, 
 J. Tomasi, M. Cossi, J. M. Millam, M. Klene, C. Adamo, R. Cammi, 
 J. W. Ochterski, R. L. Martin, K. Morokuma, O. Farkas, 
 J. B. Foresman, and D. J. Fox, Gaussian, Inc., Wallingford CT, 2019.
 
 ******************************************
 Gaussian 16:  ES64L-G16RevC.01  3-Jul-2019
                 2-Mar-2023 
 ******************************************
 %nproc=16
 Will use up to   16 processors via shared memory.
 %mem=60GB
 -----------------------------------------------------------
 # B3LYP/genecp em=GD3BJ int=fine scrf=(smd,solvent=acetone)
 -----------------------------------------------------------
 1/38=1,172=1/1;
 2/12=2,17=6,18=5,40=1/2;
 3/5=7,11=2,16=1,17=8,25=1,30=1,70=32201,72=19,74=-5,75=-4,124=41/1,2,3;
 4//1;
 5/5=2,38=5,53=19/2;
 6/7=2,8=2,9=2,10=2,28=1/1;
 99/5=1,9=1/99;
 --------
 Template
 --------
 Symbolic Z-matrix:
 Charge =  0 Multiplicity = 1
 Co                   -1.31084  -0.06953  -0.37586 
 N                    -2.82488   1.02846  -0.53372 
 O                    -3.02272   1.9938   -1.47745 
 C                    -3.75359   0.81168   0.34118 
 C                    -5.05389   1.53941   0.37095 
 H                    -5.1605    2.13313  -0.53326 
 H                    -5.08341   2.20239   1.2342 
 H                    -5.88027   0.83745   0.45322 
 N                    -2.21534  -0.68788   1.16809 
 O                    -1.74531  -1.58434   1.97914 
 C                    -3.40996  -0.18871   1.32232 
 C                    -4.33606  -0.5872    2.42672 
 H                    -4.62835   0.28105   3.01371 
 H                    -3.82192  -1.30015   3.06817 
 H                    -5.23575  -1.05373   2.02793 
 N                     0.04107  -1.37861  -0.35302 
 O                     0.33135  -2.22372   0.67702 
 C                     0.70853  -1.48578  -1.45586 
 C                     1.78592  -2.48937  -1.68524 
 H                     1.78914  -3.21313  -0.87447 
 H                     2.75275  -1.98934  -1.7138 
 H                     1.63668  -2.99736  -2.63506 
 N                    -0.58344   0.32175  -2.0607 
 O                    -1.00923   1.27356  -2.83229 
 C                     0.33969  -0.51142  -2.45313 
 C                     0.98618  -0.44939  -3.7999 
 H                     0.6       0.41895  -4.32984 
 H                     0.76183  -1.34483  -4.37799 
 H                     2.06615  -0.3634   -3.7023 
 H                    -2.2349    1.86466  -2.13872 
 H                    -0.44036  -2.07018   1.35092 
 C                    -0.29767   1.39866   0.601 
 H                    -0.68252   2.31182   0.14852 
 H                    -0.64346   1.27316   1.6269 
 C                     1.14468   1.29268   0.48078 
 C                     1.83356   0.52895   1.36774 
 H                     1.24782  -0.03158   2.08553 
 C                     1.79412   2.06461  -0.63177 
 H                     2.70249   1.57814  -0.9759 
 H                     1.10754   2.1716   -1.46633 
 H                     2.04602   3.06704  -0.28694 
 C                     3.25846   0.27429   1.44346 
 C                     4.23963   1.22013   1.13306 
 C                     3.67471  -0.99063   1.87913 
 C                     5.5818    0.899     1.22318 
 H                     3.95292   2.2229    0.86324 
 C                     5.01495  -1.31263   1.94894 
 H                     2.9262   -1.727     2.13327 
 C                     5.97652  -0.36927   1.61723 
 H                     6.32644   1.64528   0.98633 
 H                     5.31509  -2.29964   2.27003 
 H                     7.02577  -0.61807   1.6779 
 
 Stoichiometry    C18H25CoN4O4
 Framework group  C1[X(C18H25CoN4O4)]
 Deg. of freedom   150
 Full point group                 C1      NOp   1
 Largest Abelian subgroup         C1      NOp   1
 Largest concise Abelian subgroup C1      NOp   1
                         Standard orientation:                         
 ---------------------------------------------------------------------
 Center     Atomic      Atomic             Coordinates (Angstroms)
 Number     Number       Type             X           Y           Z
 ---------------------------------------------------------------------
      1         27           0        1.362172    0.202216    0.246016
      2          7           0        2.979775    0.384642   -0.688276
      3          8           0        3.358825    1.460889   -1.436378
      4          6           0        3.793159   -0.615921   -0.577785
      5          6           0        5.146039   -0.660286   -1.201470
      6          1           0        5.396299    0.319449   -1.600170
      7          1           0        5.151394   -1.384322   -2.014703
      8          1           0        5.891459   -0.964665   -0.470630
      9          7           0        2.048060   -1.522612    0.618550
     10          8           0        1.418861   -2.425413    1.305163
     11          6           0        3.262705   -1.718406    0.186839
     12          6           0        4.033914   -2.976167    0.430649
     13          1           0        4.346004   -3.422897   -0.511091
     14          1           0        3.394841   -3.674561    0.967232
     15          1           0        4.921437   -2.776022    1.029283
     16          7           0       -0.101038    0.094132    1.424671
     17          8           0       -0.569053   -1.033635    2.031780
     18          6           0       -0.663100    1.227592    1.694094
     19          6           0       -1.800997    1.390434    2.642385
     20          1           0       -1.951636    0.466115    3.193861
     21          1           0       -2.709625    1.621339    2.088599
     22          1           0       -1.606280    2.206996    3.333606
     23          7           0        0.844604    2.002456    0.135701
     24          8           0        1.431210    2.882006   -0.615891
     25          6           0       -0.108487    2.338135    0.959874
     26          6           0       -0.609918    3.738459    1.112337
     27          1           0       -0.094233    4.371289    0.392911
     28          1           0       -0.413557    4.112194    2.116370
     29          1           0       -1.681577    3.782976    0.931149
     30          1           0        2.631764    2.173067   -1.239414
     31          1           0        0.143063   -1.751802    1.807336
     32          6           0        0.397994   -0.364821   -1.452560
     33          1           0        0.908851    0.200804   -2.230885
     34          1           0        0.627372   -1.429086   -1.502749
     35          6           0       -1.028953   -0.101418   -1.430089
     36          6           0       -1.870167   -1.028766   -0.903867
     37          1           0       -1.412940   -1.899876   -0.451519
     38          6           0       -1.490583    1.201281   -2.017710
     39          1           0       -2.401656    1.551932   -1.541039
     40          1           0       -0.717809    1.956857   -1.911586
     41          1           0       -1.681219    1.078099   -3.083404
     42          6           0       -3.313027   -0.986007   -0.772477
     43          6           0       -4.166574   -0.396267   -1.709125
     44          6           0       -3.885991   -1.596364    0.351036
     45          6           0       -5.535066   -0.389288   -1.509476
     46          1           0       -3.762701    0.018806   -2.617512
     47          6           0       -5.250638   -1.569945    0.555590
     48          1           0       -3.237928   -2.065915    1.076727
     49          6           0       -6.082885   -0.962104   -0.373103
     50          1           0       -6.180080    0.064770   -2.247933
     51          1           0       -5.671427   -2.030618    1.437685
     52          1           0       -7.151541   -0.946692   -0.217334
 ---------------------------------------------------------------------
 Rotational constants (GHZ):           0.3056555           0.1230882           0.1114943
 General basis read from cards:  (5D, 7F)
 ======================================================================================================
                                       Pseudopotential Parameters
 ======================================================================================================
  Center     Atomic      Valence      Angular      Power
  Number     Number     Electrons     Momentum     of R      Exponent        Coefficient   SO-Coeffient
 ======================================================================================================
    1         27           17
                                      D and up 
                                                     1      434.1076104      -10.00000000    0.00000000
                                                     2       78.8402758      -66.72402760    0.00000000
                                                     2       19.6037749      -11.71922430    0.00000000
                                      S - D
                                                     0      151.2307582        3.00000000    0.00000000
                                                     1      169.6790026       20.15531100    0.00000000
                                                     2       64.9909423      413.37622440    0.00000000
                                                     2       12.5076287      133.87277050    0.00000000
                                      P - D
                                                     0       92.7319924        5.00000000    0.00000000
                                                     1      121.1910183        6.18923530    0.00000000
                                                     2       48.6265909      326.32159190    0.00000000
                                                     2       11.9966971       73.87889700    0.00000000
    2          7
                                   No pseudopotential on this center.
    3          8
                                   No pseudopotential on this center.
    4          6
                                   No pseudopotential on this center.
    5          6
                                   No pseudopotential on this center.
    6          1
                                   No pseudopotential on this center.
    7          1
                                   No pseudopotential on this center.
    8          1
                                   No pseudopotential on this center.
    9          7
                                   No pseudopotential on this center.
   10          8
                                   No pseudopotential on this center.
   11          6
                                   No pseudopotential on this center.
   12          6
                                   No pseudopotential on this center.
   13          1
                                   No pseudopotential on this center.
   14          1
                                   No pseudopotential on this center.
   15          1
                                   No pseudopotential on this center.
   16          7
                                   No pseudopotential on this center.
   17          8
                                   No pseudopotential on this center.
   18          6
                                   No pseudopotential on this center.
   19          6
                                   No pseudopotential on this center.
   20          1
                                   No pseudopotential on this center.
   21          1
                                   No pseudopotential on this center.
   22          1
                                   No pseudopotential on this center.
   23          7
                                   No pseudopotential on this center.
   24          8
                                   No pseudopotential on this center.
   25          6
                                   No pseudopotential on this center.
   26          6
                                   No pseudopotential on this center.
   27          1
                                   No pseudopotential on this center.
   28          1
                                   No pseudopotential on this center.
   29          1
                                   No pseudopotential on this center.
   30          1
                                   No pseudopotential on this center.
   31          1
                                   No pseudopotential on this center.
   32          6
                                   No pseudopotential on this center.
   33          1
                                   No pseudopotential on this center.
   34          1
                                   No pseudopotential on this center.
   35          6
                                   No pseudopotential on this center.
   36          6
                                   No pseudopotential on this center.
   37          1
                                   No pseudopotential on this center.
   38          6
                                   No pseudopotential on this center.
   39          1
                                   No pseudopotential on this center.
   40          1
                                   No pseudopotential on this center.
   41          1
                                   No pseudopotential on this center.
   42          6
                                   No pseudopotential on this center.
   43          6
                                   No pseudopotential on this center.
   44          6
                                   No pseudopotential on this center.
   45          6
                                   No pseudopotential on this center.
   46          1
                                   No pseudopotential on this center.
   47          6
                                   No pseudopotential on this center.
   48          1
                                   No pseudopotential on this center.
   49          6
                                   No pseudopotential on this center.
   50          1
                                   No pseudopotential on this center.
   51          1
                                   No pseudopotential on this center.
   52          1
                                   No pseudopotential on this center.
 ======================================================================================================
 There are   464 symmetry adapted cartesian basis functions of A   symmetry.
 There are   436 symmetry adapted basis functions of A   symmetry.
   436 basis functions,   880 primitive gaussians,   464 cartesian basis functions
   105 alpha electrons      105 beta electrons
       nuclear repulsion energy      2998.6669507279 Hartrees.
 NAtoms=   52 NActive=   52 NUniq=   52 SFac= 1.00D+00 NAtFMM=   60 NAOKFM=F Big=F
 Integral buffers will be    131072 words long.
 Raffenetti 2 integral format.
 Two-electron integral symmetry is turned on.
 Nuclear repulsion after empirical dispersion term =     2998.5426004292 Hartrees.
 ------------------------------------------------------------------------------
 Polarizable Continuum Model (PCM)
 =================================
 Model                : PCM.
 Atomic radii         : SMD-Coulomb.
 Polarization charges : Total charges.
 Charge compensation  : None.
 Solution method      : On-the-fly selection.
 Cavity type          : VdW (van der Waals Surface) (Alpha=1.000).
 Cavity algorithm     : GePol (No added spheres)
                        Default sphere list used, NSphG=   52.
                        Lebedev-Laikov grids with approx.  5.0 points / Ang**2.
                        Smoothing algorithm: York/Karplus (Gamma=1.0000).
                        Polarization charges: spherical gaussians, with
                                              point-specific exponents (IZeta= 3).
                        Self-potential: point-specific (ISelfS= 7).
                        Self-field    : sphere-specific E.n sum rule (ISelfD= 2).
 Solvent              : Acetone, Eps=  20.493000 Eps(inf)=   1.846337
 ------------------------------------------------------------------------------
 ------------------------------------------------------------------------------
 Atomic radii for non-electrostatic terms: SMD-CDS.
 ------------------------------------------------------------------------------
 Nuclear repulsion after PCM non-electrostatic terms =     2998.5359320382 Hartrees.
 One-electron integrals computed using PRISM.
   1 Symmetry operations used in ECPInt.
 ECPInt:  NShTT=   13203 NPrTT=   81964 LenC2=   11326 LenP2D=   39264.
 LDataN:  DoStor=T MaxTD1= 4 Len=   56
 NBasis=   436 RedAO= T EigKep=  4.38D-04  NBF=   436
 NBsUse=   436 1.00D-06 EigRej= -1.00D+00 NBFU=   436
 ExpMin= 2.30D-02 ExpMax= 5.48D+03 ExpMxC= 8.25D+02 IAcc=3 IRadAn=         5 AccDes= 0.00D+00
 Harris functional with IExCor=  402 and IRadAn=       5 diagonalized for initial guess.
 HarFok:  IExCor=  402 AccDes= 0.00D+00 IRadAn=         5 IDoV= 1 UseB2=F ITyADJ=14
 ICtDFT=  3500011 ScaDFX=  1.000000  1.000000  1.000000  1.000000
 FoFCou: FMM=F IPFlag=           0 FMFlag=      100000 FMFlg1=           0
         NFxFlg=           0 DoJE=T BraDBF=F KetDBF=T FulRan=T
         wScrn=  0.000000 ICntrl=       500 IOpCl=  0 I1Cent=   200000004 NGrid=           0
         NMat0=    1 NMatS0=      1 NMatT0=    0 NMatD0=    1 NMtDS0=    0 NMtDT0=    0
 Petite list used in FoFCou.
 Requested convergence on RMS density matrix=1.00D-08 within 128 cycles.
 Requested convergence on MAX density matrix=1.00D-06.
 Requested convergence on             energy=1.00D-06.
 No special actions if energy rises.
 Inv3:  Mode=1 IEnd=    40605123.
 Iteration    1 A*A^-1 deviation from unit magnitude is 3.33D-15 for   1914.
 Iteration    1 A*A^-1 deviation from orthogonality  is 3.44D-15 for   1887    798.
 Iteration    1 A^-1*A deviation from unit magnitude is 3.22D-15 for   2557.
 Iteration    1 A^-1*A deviation from orthogonality  is 4.91D-15 for   2577   2477.
 EnCoef did     5 forward-backward iterations
 Error on total polarization charges =  0.04506
 SCF Done:  E(RB3LYP) =  -1365.93055313     A.U. after   20 cycles
            NFock= 20  Conv=0.91D-08     -V/T= 2.0505
 SMD-CDS (non-electrostatic) energy       (kcal/mol) =      -4.18
 (included in total energy above)

 **********************************************************************

            Population analysis using the SCF Density.

 **********************************************************************

 Orbital symmetries:
       Occupied  (A) (A) (A) (A) (A) (A) (A) (A) (A) (A) (A) (A)
                 (A) (A) (A) (A) (A) (A) (A) (A) (A) (A) (A) (A)
                 (A) (A) (A) (A) (A) (A) (A) (A) (A) (A) (A) (A)
                 (A) (A) (A) (A) (A) (A) (A) (A) (A) (A) (A) (A)
                 (A) (A) (A) (A) (A) (A) (A) (A) (A) (A) (A) (A)
                 (A) (A) (A) (A) (A) (A) (A) (A) (A) (A) (A) (A)
                 (A) (A) (A) (A) (A) (A) (A) (A) (A) (A) (A) (A)
                 (A) (A) (A) (A) (A) (A) (A) (A) (A) (A) (A) (A)
                 (A) (A) (A) (A) (A) (A) (A) (A) (A)
       Virtual   (A) (A) (A) (A) (A) (A) (A) (A) (A) (A) (A) (A)
                 (A) (A) (A) (A) (A) (A) (A) (A) (A) (A) (A) (A)
                 (A) (A) (A) (A) (A) (A) (A) (A) (A) (A) (A) (A)
                 (A) (A) (A) (A) (A) (A) (A) (A) (A) (A) (A) (A)
                 (A) (A) (A) (A) (A) (A) (A) (A) (A) (A) (A) (A)
                 (A) (A) (A) (A) (A) (A) (A) (A) (A) (A) (A) (A)
                 (A) (A) (A) (A) (A) (A) (A) (A) (A) (A) (A) (A)
                 (A) (A) (A) (A) (A) (A) (A) (A) (A) (A) (A) (A)
                 (A) (A) (A) (A) (A) (A) (A) (A) (A) (A) (A) (A)
                 (A) (A) (A) (A) (A) (A) (A) (A) (A) (A) (A) (A)
                 (A) (A) (A) (A) (A) (A) (A) (A) (A) (A) (A) (A)
                 (A) (A) (A) (A) (A) (A) (A) (A) (A) (A) (A) (A)
                 (A) (A) (A) (A) (A) (A) (A) (A) (A) (A) (A) (A)
                 (A) (A) (A) (A) (A) (A) (A) (A) (A) (A) (A) (A)
                 (A) (A) (A) (A) (A) (A) (A) (A) (A) (A) (A) (A)
                 (A) (A) (A) (A) (A) (A) (A) (A) (A) (A) (A) (A)
                 (A) (A) (A) (A) (A) (A) (A) (A) (A) (A) (A) (A)
                 (A) (A) (A) (A) (A) (A) (A) (A) (A) (A) (A) (A)
                 (A) (A) (A) (A) (A) (A) (A) (A) (A) (A) (A) (A)
                 (A) (A) (A) (A) (A) (A) (A) (A) (A) (A) (A) (A)
                 (A) (A) (A) (A) (A) (A) (A) (A) (A) (A) (A) (A)
                 (A) (A) (A) (A) (A) (A) (A) (A) (A) (A) (A) (A)
                 (A) (A) (A) (A) (A) (A) (A) (A) (A) (A) (A) (A)
                 (A) (A) (A) (A) (A) (A) (A) (A) (A) (A) (A) (A)
                 (A) (A) (A) (A) (A) (A) (A) (A) (A) (A) (A) (A)
                 (A) (A) (A) (A) (A) (A) (A) (A) (A) (A) (A) (A)
                 (A) (A) (A) (A) (A) (A) (A) (A) (A) (A) (A) (A)
                 (A) (A) (A) (A) (A) (A) (A)
 The electronic state is 1-A.
 Alpha  occ. eigenvalues --  -19.16660 -19.16656 -19.12762 -19.12716 -14.40986
 Alpha  occ. eigenvalues --  -14.40946 -14.40566 -14.40391 -10.23682 -10.23469
 Alpha  occ. eigenvalues --  -10.21383 -10.21358 -10.18569 -10.18439 -10.17560
 Alpha  occ. eigenvalues --  -10.17533 -10.17488 -10.17473 -10.17472 -10.17450
 Alpha  occ. eigenvalues --  -10.17391 -10.17373 -10.16982 -10.16820 -10.16812
 Alpha  occ. eigenvalues --  -10.15719  -3.74527  -2.44560  -2.43721  -2.42714
 Alpha  occ. eigenvalues --   -1.09077  -1.08542  -1.06892  -1.06352  -0.90624
 Alpha  occ. eigenvalues --   -0.89428  -0.85790  -0.81927  -0.80950  -0.80607
 Alpha  occ. eigenvalues --   -0.75325  -0.74648  -0.74211  -0.74192  -0.70655
 Alpha  occ. eigenvalues --   -0.70533  -0.68410  -0.66415  -0.62334  -0.60329
 Alpha  occ. eigenvalues --   -0.60077  -0.58792  -0.54904  -0.53554  -0.52973
 Alpha  occ. eigenvalues --   -0.52124  -0.51326  -0.50877  -0.49426  -0.49008
 Alpha  occ. eigenvalues --   -0.47656  -0.47001  -0.46643  -0.46163  -0.45335
 Alpha  occ. eigenvalues --   -0.44512  -0.43387  -0.42771  -0.42329  -0.42291
 Alpha  occ. eigenvalues --   -0.42058  -0.41931  -0.41527  -0.40914  -0.40609
 Alpha  occ. eigenvalues --   -0.40010  -0.39592  -0.39141  -0.38832  -0.38425
 Alpha  occ. eigenvalues --   -0.38089  -0.38025  -0.37601  -0.37310  -0.36801
 Alpha  occ. eigenvalues --   -0.36286  -0.34922  -0.34339  -0.34278  -0.33286
 Alpha  occ. eigenvalues --   -0.32906  -0.31027  -0.30499  -0.28389  -0.28006
 Alpha  occ. eigenvalues --   -0.27757  -0.26582  -0.26277  -0.25197  -0.25053
 Alpha  occ. eigenvalues --   -0.24969  -0.22362  -0.20171  -0.19806  -0.19587
 Alpha virt. eigenvalues --   -0.09229  -0.03868  -0.03443  -0.00442   0.00151
 Alpha virt. eigenvalues --    0.00452   0.02606   0.02885   0.03285   0.06004
 Alpha virt. eigenvalues --    0.06718   0.06796   0.07830   0.11041   0.12246
 Alpha virt. eigenvalues --    0.12474   0.13615   0.14515   0.14601   0.15001
 Alpha virt. eigenvalues --    0.15460   0.16275   0.16604   0.16803   0.17381
 Alpha virt. eigenvalues --    0.17654   0.18102   0.18128   0.18464   0.18938
 Alpha virt. eigenvalues --    0.19117   0.19376   0.19631   0.20258   0.21449
 Alpha virt. eigenvalues --    0.22042   0.22851   0.23233   0.23589   0.24783
 Alpha virt. eigenvalues --    0.24820   0.24955   0.25711   0.26091   0.26737
 Alpha virt. eigenvalues --    0.27021   0.28004   0.28746   0.29446   0.29911
 Alpha virt. eigenvalues --    0.30498   0.31882   0.32134   0.33208   0.34326
 Alpha virt. eigenvalues --    0.34939   0.36205   0.36981   0.40196   0.41236
 Alpha virt. eigenvalues --    0.42347   0.42548   0.42705   0.44825   0.47176
 Alpha virt. eigenvalues --    0.47962   0.49769   0.51179   0.51907   0.52956
 Alpha virt. eigenvalues --    0.53782   0.53996   0.54531   0.55842   0.56026
 Alpha virt. eigenvalues --    0.56405   0.57231   0.57588   0.57876   0.58198
 Alpha virt. eigenvalues --    0.59706   0.59960   0.60168   0.60564   0.60840
 Alpha virt. eigenvalues --    0.61432   0.62234   0.62758   0.62994   0.63512
 Alpha virt. eigenvalues --    0.64363   0.65078   0.66103   0.67275   0.68009
 Alpha virt. eigenvalues --    0.68345   0.68926   0.69648   0.69939   0.70422
 Alpha virt. eigenvalues --    0.70840   0.71255   0.72111   0.72891   0.74831
 Alpha virt. eigenvalues --    0.75181   0.75691   0.76678   0.77335   0.78069
 Alpha virt. eigenvalues --    0.78703   0.79932   0.81515   0.82033   0.82839
 Alpha virt. eigenvalues --    0.83403   0.84176   0.84376   0.85179   0.85403
 Alpha virt. eigenvalues --    0.85578   0.85755   0.86498   0.86990   0.87427
 Alpha virt. eigenvalues --    0.88153   0.89286   0.89962   0.90130   0.90591
 Alpha virt. eigenvalues --    0.90851   0.91039   0.91636   0.92062   0.92670
 Alpha virt. eigenvalues --    0.92748   0.93736   0.94116   0.95085   0.95559
 Alpha virt. eigenvalues --    0.96186   0.96627   0.97157   0.98291   0.98799
 Alpha virt. eigenvalues --    0.99713   1.00434   1.00984   1.02429   1.03151
 Alpha virt. eigenvalues --    1.03454   1.03940   1.04312   1.05657   1.06589
 Alpha virt. eigenvalues --    1.07108   1.08153   1.08811   1.09682   1.11008
 Alpha virt. eigenvalues --    1.12150   1.12693   1.13358   1.14867   1.16228
 Alpha virt. eigenvalues --    1.16771   1.17870   1.20191   1.20539   1.21353
 Alpha virt. eigenvalues --    1.22568   1.23872   1.24590   1.25451   1.25812
 Alpha virt. eigenvalues --    1.27227   1.28639   1.29106   1.30130   1.30261
 Alpha virt. eigenvalues --    1.34078   1.34367   1.35248   1.35551   1.36740
 Alpha virt. eigenvalues --    1.36929   1.37506   1.37761   1.38823   1.39097
 Alpha virt. eigenvalues --    1.39691   1.40926   1.41897   1.43597   1.43810
 Alpha virt. eigenvalues --    1.44610   1.46325   1.46790   1.49680   1.49833
 Alpha virt. eigenvalues --    1.49925   1.50620   1.51267   1.52472   1.53083
 Alpha virt. eigenvalues --    1.54827   1.58802   1.60625   1.62106   1.62445
 Alpha virt. eigenvalues --    1.63688   1.69236   1.71549   1.74220   1.74475
 Alpha virt. eigenvalues --    1.75307   1.75848   1.76936   1.77507   1.78464
 Alpha virt. eigenvalues --    1.79409   1.79863   1.80229   1.80989   1.82024
 Alpha virt. eigenvalues --    1.82237   1.82423   1.83235   1.84221   1.85330
 Alpha virt. eigenvalues --    1.87429   1.87981   1.89945   1.90109   1.91293
 Alpha virt. eigenvalues --    1.91419   1.92679   1.93820   1.93953   1.94908
 Alpha virt. eigenvalues --    1.95438   1.96828   1.97609   1.98691   1.99471
 Alpha virt. eigenvalues --    2.00061   2.00751   2.01635   2.02627   2.05185
 Alpha virt. eigenvalues --    2.06579   2.09348   2.10193   2.11565   2.12708
 Alpha virt. eigenvalues --    2.12927   2.13577   2.14677   2.15236   2.15970
 Alpha virt. eigenvalues --    2.16179   2.16950   2.19425   2.19887   2.20638
 Alpha virt. eigenvalues --    2.21430   2.23805   2.24058   2.26465   2.28032
 Alpha virt. eigenvalues --    2.28415   2.29143   2.29303   2.30764   2.31957
 Alpha virt. eigenvalues --    2.32894   2.32978   2.33106   2.34065   2.34283
 Alpha virt. eigenvalues --    2.34630   2.35970   2.36488   2.37393   2.39126
 Alpha virt. eigenvalues --    2.40102   2.44045   2.45185   2.46431   2.51320
 Alpha virt. eigenvalues --    2.51641   2.52835   2.52924   2.54216   2.55704
 Alpha virt. eigenvalues --    2.56471   2.56954   2.59005   2.59763   2.60663
 Alpha virt. eigenvalues --    2.64076   2.64391   2.64861   2.65795   2.66209
 Alpha virt. eigenvalues --    2.67660   2.68347   2.70599   2.74512   2.75944
 Alpha virt. eigenvalues --    2.76665   2.77094   2.78098   2.82103   2.85568
 Alpha virt. eigenvalues --    2.87036   2.90888   2.91205   2.93415   2.96084
 Alpha virt. eigenvalues --    3.02689   3.04635   3.05751   3.08352   3.10083
 Alpha virt. eigenvalues --    3.10999   3.20794   3.29420   3.32373   3.46470
 Alpha virt. eigenvalues --   21.72283
          Condensed to atoms (all electrons):
 Mulliken charges:
               1
     1  Co   0.333929
     2  N   -0.164973
     3  O   -0.573178
     4  C    0.326973
     5  C   -0.545960
     6  H    0.200305
     7  H    0.205390
     8  H    0.199244
     9  N   -0.079799
    10  O   -0.557423
    11  C    0.268859
    12  C   -0.548299
    13  H    0.187043
    14  H    0.190399
    15  H    0.189354
    16  N   -0.169098
    17  O   -0.567793
    18  C    0.322954
    19  C   -0.546827
    20  H    0.198983
    21  H    0.205159
    22  H    0.197015
    23  N   -0.083670
    24  O   -0.557646
    25  C    0.276808
    26  C   -0.549364
    27  H    0.190371
    28  H    0.189344
    29  H    0.187333
    30  H    0.471268
    31  H    0.471222
    32  C   -0.405418
    33  H    0.190782
    34  H    0.198603
    35  C    0.231993
    36  C   -0.249340
    37  H    0.149599
    38  C   -0.559136
    39  H    0.168115
    40  H    0.181927
    41  H    0.178996
    42  C    0.139928
    43  C   -0.200806
    44  C   -0.202033
    45  C   -0.158447
    46  H    0.159818
    47  C   -0.155266
    48  H    0.155356
    49  C   -0.151722
    50  H    0.153189
    51  H    0.153314
    52  H    0.152626
 Sum of Mulliken charges =  -0.00000
 Mulliken charges with hydrogens summed into heavy atoms:
               1
     1  Co   0.333929
     2  N   -0.164973
     3  O   -0.101910
     4  C    0.326973
     5  C    0.058979
     9  N   -0.079799
    10  O   -0.557423
    11  C    0.268859
    12  C    0.018498
    16  N   -0.169098
    17  O   -0.096571
    18  C    0.322954
    19  C    0.054329
    23  N   -0.083670
    24  O   -0.557646
    25  C    0.276808
    26  C    0.017684
    32  C   -0.016033
    35  C    0.231993
    36  C   -0.099741
    38  C   -0.030099
    42  C    0.139928
    43  C   -0.040988
    44  C   -0.046677
    45  C   -0.005257
    47  C   -0.001953
    49  C    0.000904
 Electronic spatial extent (au):  <R**2>=          10399.6309
 Charge=              0.0000 electrons
 Dipole moment (field-independent basis, Debye):
    X=              0.2207    Y=              0.5326    Z=              0.8221  Tot=              1.0041
 Quadrupole moment (field-independent basis, Debye-Ang):
   XX=           -138.0376   YY=           -172.0223   ZZ=           -161.1722
   XY=            -18.0076   XZ=             -2.5041   YZ=             11.3472
 Traceless Quadrupole moment (field-independent basis, Debye-Ang):
   XX=             19.0398   YY=            -14.9450   ZZ=             -4.0948
   XY=            -18.0076   XZ=             -2.5041   YZ=             11.3472
 Octapole moment (field-independent basis, Debye-Ang**2):
  XXX=            107.9423  YYY=             16.0244  ZZZ=             15.1106  XYY=             14.5898
  XXY=            -46.6304  XXZ=              5.0819  XZZ=              4.8320  YZZ=             23.6831
  YYZ=             24.5061  XYZ=             27.2401
 Hexadecapole moment (field-independent basis, Debye-Ang**3):
 XXXX=          -8026.8034 YYYY=          -2915.0694 ZZZZ=          -1732.6994 XXXY=           -231.0843
 XXXZ=            -39.8082 YYYX=            -91.1912 YYYZ=             48.9881 ZZZX=            -16.8306
 ZZZY=              4.9568 XXYY=          -2011.5188 XXZZ=          -1761.3916 YYZZ=           -753.6876
 XXYZ=            -36.8161 YYXZ=            -71.7572 ZZXY=            -33.8696
 N-N= 2.998535932038D+03 E-N=-9.188563702137D+03  KE= 1.300225895907D+03
 Unable to Open any file for archive entry.
 1\1\GINC-N204\SP\RB3LYP\GenECP\C18H25Co1N4O4\CJD\02-Mar-2023\0\\# B3LY
 P/genecp em=GD3BJ int=fine scrf=(smd,solvent=acetone)\\Template\\0,1\C
 o,0,-1.310841907,-0.0695260025,-0.3758573859\N,0,-2.8248842466,1.02846
 19152,-0.5337166879\O,0,-3.0227191926,1.9937985263,-1.4774483124\C,0,-
 3.7535932895,0.8116814539,0.3411752176\C,0,-5.0538858041,1.5394094548,
 0.3709534012\H,0,-5.1605012295,2.1331277866,-0.5332614671\H,0,-5.08341
 18054,2.2023905548,1.2341980263\H,0,-5.8802692082,0.8374498306,0.45322
 04693\N,0,-2.2153437305,-0.6878774582,1.1680897065\O,0,-1.7453137904,-
 1.5843432759,1.9791371332\C,0,-3.4099633019,-0.1887086655,1.3223181331
 \C,0,-4.3360640285,-0.5872040596,2.4267225837\H,0,-4.6283498871,0.2810
 478773,3.0137065872\H,0,-3.8219243667,-1.3001532408,3.0681692725\H,0,-
 5.2357496191,-1.0537324348,2.0279333181\N,0,0.0410742071,-1.3786073011
 ,-0.3530236373\O,0,0.331346064,-2.2237233023,0.6770244049\C,0,0.708529
 8754,-1.4857816063,-1.4558605244\C,0,1.7859225121,-2.4893725904,-1.685
 2356806\H,0,1.7891360389,-3.2131342121,-0.8744688669\H,0,2.7527491352,
 -1.9893409513,-1.7137995955\H,0,1.6366832436,-2.9973551535,-2.63505514
 41\N,0,-0.5834350319,0.3217503687,-2.0606994489\O,0,-1.0092297221,1.27
 35649633,-2.8322909506\C,0,0.3396883706,-0.5114153476,-2.4531304986\C,
 0,0.9861756554,-0.449390508,-3.799901779\H,0,0.5999959815,0.418948957,
 -4.3298366016\H,0,0.761825897,-1.3448260777,-4.3779850241\H,0,2.066149
 2839,-0.3633981502,-3.7023007001\H,0,-2.2349010654,1.8646583622,-2.138
 7164313\H,0,-0.4403625857,-2.0701826164,1.3509223131\C,0,-0.2976749701
 ,1.3986613187,0.600998605\H,0,-0.6825193485,2.3118150587,0.1485150172\
 H,0,-0.6434575755,1.2731618186,1.6269018127\C,0,1.1446770796,1.2926751
 432,0.480783044\C,0,1.8335577685,0.528951779,1.367740627\H,0,1.2478155
 233,-0.0315797803,2.0855279992\C,0,1.7941174248,2.0646104091,-0.631767
 7359\H,0,2.7024933177,1.5781377956,-0.9758956177\H,0,1.1075372651,2.17
 15987771,-1.4663327378\H,0,2.046019234,3.0670351607,-0.2869358338\C,0,
 3.2584614197,0.2742925196,1.4434648575\C,0,4.2396298158,1.2201285703,1
 .1330635345\C,0,3.6747088955,-0.9906338883,1.8791311947\C,0,5.58180362
 98,0.8989960227,1.2231788233\H,0,3.9529152496,2.2229036948,0.863244278
 5\C,0,5.0149501279,-1.3126305556,1.9489407489\H,0,2.92619594,-1.726999
 679,2.133267669\C,0,5.9765166306,-0.3692694155,1.6172257024\H,0,6.3264
 422168,1.645284288,0.9863281178\H,0,5.315092899,-2.2996433083,2.270025
 1085\H,0,7.0257736557,-0.6180744937,1.6778980817\\Version=ES64L-G16Rev
 C.01\State=1-A\HF=-1365.9305531\RMSD=9.112e-09\Dipole=-0.0853896,-0.26
 98715,-0.2755726\Quadrupole=16.3702128,-6.3279913,-10.0422215,-2.30603
 95,-10.1655316,10.3606911\PG=C01 [X(C18H25Co1N4O4)]\\@
 The archive entry for this job was punched.


 TIME IS IN FACT THE HERO OF THE PLOT. THE TIME
 WITH WHICH WE HAVE TO DEAL IS OF THE ORDER OF TWO
 BILLION YEARS...GIVEN SO MUCH TIME, THE "IMPOSSIBLE"
 BECOMES POSSIBLE, THE POSSIBLE PROBABLE, THE PROBABLE
 VIRTUALLY CERTAIN.  ONE HAS ONLY TO WAIT, TIME
 ITSELF PERFORMS THE MIRACLES.
 "ORIGIN OF LIFE" LECTURES, GEORGE WALD, 1954
 Job cpu time:       0 days  0 hours 21 minutes 48.5 seconds.
 Elapsed time:       0 days  0 hours  1 minutes 24.2 seconds.
 File lengths (MBytes):  RWF=    330 Int=      0 D2E=      0 Chk=     14 Scr=      1
 Normal termination of Gaussian 16 at Thu Mar  2 08:21:32 2023.
