 Entering Gaussian System, Link 0=g16
 Initial command:
 /opt/local/g16/l1.exe "/data/tmp/cjd/Gau-63083.inp" -scrdir="/data/tmp/cjd/"
 Entering Link 1 = /opt/local/g16/l1.exe PID=     63084.
  
 Copyright (c) 1988-2019, Gaussian, Inc.  All Rights Reserved.
  
 This is part of the Gaussian(R) 16 program.  It is based on
 the Gaussian(R) 09 system (copyright 2009, Gaussian, Inc.),
 the Gaussian(R) 03 system (copyright 2003, Gaussian, Inc.),
 the Gaussian(R) 98 system (copyright 1998, Gaussian, Inc.),
 the Gaussian(R) 94 system (copyright 1995, Gaussian, Inc.),
 the Gaussian 92(TM) system (copyright 1992, Gaussian, Inc.),
 the Gaussian 90(TM) system (copyright 1990, Gaussian, Inc.),
 the Gaussian 88(TM) system (copyright 1988, Gaussian, Inc.),
 the Gaussian 86(TM) system (copyright 1986, Carnegie Mellon
 University), and the Gaussian 82(TM) system (copyright 1983,
 Carnegie Mellon University). Gaussian is a federally registered
 trademark of Gaussian, Inc.
  
 This software contains proprietary and confidential information,
 including trade secrets, belonging to Gaussian, Inc.
  
 This software is provided under written license and may be
 used, copied, transmitted, or stored only in accord with that
 written license.
  
 The following legend is applicable only to US Government
 contracts under FAR:
  
                    RESTRICTED RIGHTS LEGEND
  
 Use, reproduction and disclosure by the US Government is
 subject to restrictions as set forth in subparagraphs (a)
 and (c) of the Commercial Computer Software - Restricted
 Rights clause in FAR 52.227-19.
  
 Gaussian, Inc.
 340 Quinnipiac St., Bldg. 40, Wallingford CT 06492
  
  
 ---------------------------------------------------------------
 Warning -- This program may not be used in any manner that
 competes with the business of Gaussian, Inc. or will provide
 assistance to any competitor of Gaussian, Inc.  The licensee
 of this program is prohibited from giving any competitor of
 Gaussian, Inc. access to this program.  By using this program,
 the user acknowledges that Gaussian, Inc. is engaged in the
 business of creating and licensing software in the field of
 computational chemistry and represents and warrants to the
 licensee that it is not a competitor of Gaussian, Inc. and that
 it will not use this program in any manner prohibited above.
 ---------------------------------------------------------------
  

 Cite this work as:
 Gaussian 16, Revision C.01,
 M. J. Frisch, G. W. Trucks, H. B. Schlegel, G. E. Scuseria, 
 M. A. Robb, J. R. Cheeseman, G. Scalmani, V. Barone, 
 G. A. Petersson, H. Nakatsuji, X. Li, M. Caricato, A. V. Marenich, 
 J. Bloino, B. G. Janesko, R. Gomperts, B. Mennucci, H. P. Hratchian, 
 J. V. Ortiz, A. F. Izmaylov, J. L. Sonnenberg, D. Williams-Young, 
 F. Ding, F. Lipparini, F. Egidi, J. Goings, B. Peng, A. Petrone, 
 T. Henderson, D. Ranasinghe, V. G. Zakrzewski, J. Gao, N. Rega, 
 G. Zheng, W. Liang, M. Hada, M. Ehara, K. Toyota, R. Fukuda, 
 J. Hasegawa, M. Ishida, T. Nakajima, Y. Honda, O. Kitao, H. Nakai, 
 T. Vreven, K. Throssell, J. A. Montgomery, Jr., J. E. Peralta, 
 F. Ogliaro, M. J. Bearpark, J. J. Heyd, E. N. Brothers, K. N. Kudin, 
 V. N. Staroverov, T. A. Keith, R. Kobayashi, J. Normand, 
 K. Raghavachari, A. P. Rendell, J. C. Burant, S. S. Iyengar, 
 J. Tomasi, M. Cossi, J. M. Millam, M. Klene, C. Adamo, R. Cammi, 
 J. W. Ochterski, R. L. Martin, K. Morokuma, O. Farkas, 
 J. B. Foresman, and D. J. Fox, Gaussian, Inc., Wallingford CT, 2019.
 
 ******************************************
 Gaussian 16:  ES64L-G16RevC.01  3-Jul-2019
                 2-Mar-2023 
 ******************************************
 %nproc=16
 Will use up to   16 processors via shared memory.
 %mem=60GB
 -----------------------------------------------------------
 # B3LYP/genecp em=GD3BJ int=fine scrf=(smd,solvent=acetone)
 -----------------------------------------------------------
 1/38=1,172=1/1;
 2/12=2,17=6,18=5,40=1/2;
 3/5=7,11=2,16=1,17=8,25=1,30=1,70=32201,72=19,74=-5,75=-4,124=41/1,2,3;
 4//1;
 5/5=2,38=5,53=19/2;
 6/7=2,8=2,9=2,10=2,28=1/1;
 99/5=1,9=1/99;
 --------
 Template
 --------
 Symbolic Z-matrix:
 Charge =  0 Multiplicity = 1
 Co                   -1.29017  -0.02735  -0.43654 
 N                    -2.82541   1.04721  -0.51279 
 O                    -3.0933    1.9999   -1.45128 
 C                    -3.69827   0.82461   0.41653 
 C                    -5.00342   1.53711   0.51732 
 H                    -5.8101    0.83139   0.69897 
 H                    -5.18999   2.08748  -0.40136 
 H                    -4.97237   2.24132   1.34749 
 N                    -2.09802  -0.65549   1.15517 
 O                    -1.5701   -1.54228   1.94131 
 C                    -3.2844   -0.16474   1.38177 
 C                    -4.13381  -0.56249   2.54647 
 H                    -4.42039   0.31126   3.12782 
 H                    -3.56194  -1.24345   3.17376 
 H                    -5.03882  -1.06738   2.21115 
 N                     0.08292  -1.316    -0.48657 
 O                     0.42725  -2.16793   0.51988 
 C                     0.7179   -1.39016  -1.61097 
 C                     1.81837  -2.35795  -1.88099 
 H                     1.84025  -3.11173  -1.09812 
 H                     2.77298  -1.83391  -1.88529 
 H                     1.68324  -2.83122  -2.85026 
 N                    -0.6467    0.3842   -2.15245 
 O                    -1.13063   1.32641  -2.90145 
 C                     0.28562  -0.4184   -2.5854 
 C                     0.87809  -0.32862  -3.95542 
 H                     1.95903  -0.22099  -3.89878 
 H                     0.45308   0.53656  -4.46043 
 H                     0.64924  -1.22231  -4.53457 
 H                    -2.33648   1.88492  -2.15098 
 H                    -0.31209  -2.0219    1.23264 
 C                    -0.26956   1.47101   0.47921 
 H                    -0.57685   2.36206  -0.06704 
 H                    -0.67926   1.4508    1.48892 
 C                     1.16811   1.27379   0.45393 
 C                     1.75656   0.51344   1.41224 
 H                     1.10039   0.02416   2.12121 
 C                     1.92794   1.945    -0.65431 
 H                     2.20413   2.9546   -0.35166 
 H                     2.83347   1.3995   -0.90417 
 H                     1.30356   2.02971  -1.53891 
 C                     3.15869   0.17558   1.56709 
 C                     3.47989  -1.11045   2.0186 
 C                     4.20376   1.06791   1.31433 
 C                     4.79532  -1.50227   2.16516 
 H                     2.68     -1.80719   2.22132 
 C                     5.51978   0.67702   1.4821 
 H                     3.98422   2.0835    1.02829 
 C                     5.82282  -0.61011   1.89568 
 H                     5.0238   -2.50451   2.49792 
 H                     6.31544   1.38272   1.29115 
 H                     6.85208  -0.91376   2.01825 
 
 Stoichiometry    C18H25CoN4O4
 Framework group  C1[X(C18H25CoN4O4)]
 Deg. of freedom   150
 Full point group                 C1      NOp   1
 Largest Abelian subgroup         C1      NOp   1
 Largest concise Abelian subgroup C1      NOp   1
                         Standard orientation:                         
 ---------------------------------------------------------------------
 Center     Atomic      Atomic             Coordinates (Angstroms)
 Number     Number       Type             X           Y           Z
 ---------------------------------------------------------------------
      1         27           0        1.357355    0.225212    0.237290
      2          7           0        3.010023    0.211692   -0.649253
      3          8           0        3.519587    1.219449   -1.414048
      4          6           0        3.713493   -0.861920   -0.483309
      5          6           0        5.070924   -1.062984   -1.064833
      6          1           0        5.751398   -1.460787   -0.316186
      7          1           0        5.447937   -0.117179   -1.445627
      8          1           0        5.014542   -1.774423   -1.887475
      9          7           0        1.856231   -1.542189    0.693512
     10          8           0        1.120054   -2.352014    1.390177
     11          6           0        3.052241   -1.878514    0.298407
     12          6           0        3.678813   -3.202867    0.597976
     13          1           0        3.989606   -3.696237   -0.320466
     14          1           0        2.946665   -3.822345    1.112206
     15          1           0        4.551388   -3.082310    1.238668
     16          7           0       -0.145285    0.308217    1.370291
     17          8           0       -0.726753   -0.740574    2.017769
     18          6           0       -0.625176    1.495752    1.550377
     19          6           0       -1.790037    1.796187    2.429809
     20          1           0       -2.011902    0.930272    3.048278
     21          1           0       -2.662646    2.018228    1.817297
     22          1           0       -1.583718    2.659408    3.057525
     23          7           0        1.010102    2.059387    0.029897
     24          8           0        1.704852    2.847170   -0.731456
     25          6           0        0.053240    2.516117    0.789259
     26          6           0       -0.331010    3.959960    0.850271
     27          1           0       -1.387775    4.084759    0.624673
     28          1           0        0.262979    4.507440    0.121139
     29          1           0       -0.137989    4.369520    1.840966
     30          1           0        2.856950    2.004417   -1.271522
     31          1           0       -0.079215   -1.531389    1.840921
     32          6           0        0.415271   -0.309859   -1.480704
     33          1           0        0.902405    0.299547   -2.241041
     34          1           0        0.677685   -1.363561   -1.573616
     35          6           0       -1.018763   -0.091941   -1.430807
     36          6           0       -1.822223   -1.043709   -0.891037
     37          1           0       -1.334761   -1.904964   -0.451468
     38          6           0       -1.531055    1.200820   -1.998578
     39          1           0       -1.718494    1.084972   -3.065631
     40          1           0       -2.454661    1.509428   -1.517229
     41          1           0       -0.786182    1.982560   -1.881941
     42          6           0       -3.263355   -1.026760   -0.726893
     43          6           0       -3.800258   -1.595330    0.434732
     44          6           0       -4.145268   -0.497335   -1.672539
     45          6           0       -5.161741   -1.590928    0.662091
     46          1           0       -3.128219   -2.011490    1.170631
     47          6           0       -5.510114   -0.513474   -1.449408
     48          1           0       -3.764424   -0.112136   -2.604211
     49          6           0       -6.024123   -1.047850   -0.279022
     50          1           0       -5.556090   -2.018666    1.572560
     51          1           0       -6.178490   -0.108251   -2.195484
     52          1           0       -7.090138   -1.051730   -0.105205
 ---------------------------------------------------------------------
 Rotational constants (GHZ):           0.2960834           0.1274234           0.1118124
 General basis read from cards:  (5D, 7F)
 ======================================================================================================
                                       Pseudopotential Parameters
 ======================================================================================================
  Center     Atomic      Valence      Angular      Power
  Number     Number     Electrons     Momentum     of R      Exponent        Coefficient   SO-Coeffient
 ======================================================================================================
    1         27           17
                                      D and up 
                                                     1      434.1076104      -10.00000000    0.00000000
                                                     2       78.8402758      -66.72402760    0.00000000
                                                     2       19.6037749      -11.71922430    0.00000000
                                      S - D
                                                     0      151.2307582        3.00000000    0.00000000
                                                     1      169.6790026       20.15531100    0.00000000
                                                     2       64.9909423      413.37622440    0.00000000
                                                     2       12.5076287      133.87277050    0.00000000
                                      P - D
                                                     0       92.7319924        5.00000000    0.00000000
                                                     1      121.1910183        6.18923530    0.00000000
                                                     2       48.6265909      326.32159190    0.00000000
                                                     2       11.9966971       73.87889700    0.00000000
    2          7
                                   No pseudopotential on this center.
    3          8
                                   No pseudopotential on this center.
    4          6
                                   No pseudopotential on this center.
    5          6
                                   No pseudopotential on this center.
    6          1
                                   No pseudopotential on this center.
    7          1
                                   No pseudopotential on this center.
    8          1
                                   No pseudopotential on this center.
    9          7
                                   No pseudopotential on this center.
   10          8
                                   No pseudopotential on this center.
   11          6
                                   No pseudopotential on this center.
   12          6
                                   No pseudopotential on this center.
   13          1
                                   No pseudopotential on this center.
   14          1
                                   No pseudopotential on this center.
   15          1
                                   No pseudopotential on this center.
   16          7
                                   No pseudopotential on this center.
   17          8
                                   No pseudopotential on this center.
   18          6
                                   No pseudopotential on this center.
   19          6
                                   No pseudopotential on this center.
   20          1
                                   No pseudopotential on this center.
   21          1
                                   No pseudopotential on this center.
   22          1
                                   No pseudopotential on this center.
   23          7
                                   No pseudopotential on this center.
   24          8
                                   No pseudopotential on this center.
   25          6
                                   No pseudopotential on this center.
   26          6
                                   No pseudopotential on this center.
   27          1
                                   No pseudopotential on this center.
   28          1
                                   No pseudopotential on this center.
   29          1
                                   No pseudopotential on this center.
   30          1
                                   No pseudopotential on this center.
   31          1
                                   No pseudopotential on this center.
   32          6
                                   No pseudopotential on this center.
   33          1
                                   No pseudopotential on this center.
   34          1
                                   No pseudopotential on this center.
   35          6
                                   No pseudopotential on this center.
   36          6
                                   No pseudopotential on this center.
   37          1
                                   No pseudopotential on this center.
   38          6
                                   No pseudopotential on this center.
   39          1
                                   No pseudopotential on this center.
   40          1
                                   No pseudopotential on this center.
   41          1
                                   No pseudopotential on this center.
   42          6
                                   No pseudopotential on this center.
   43          6
                                   No pseudopotential on this center.
   44          6
                                   No pseudopotential on this center.
   45          6
                                   No pseudopotential on this center.
   46          1
                                   No pseudopotential on this center.
   47          6
                                   No pseudopotential on this center.
   48          1
                                   No pseudopotential on this center.
   49          6
                                   No pseudopotential on this center.
   50          1
                                   No pseudopotential on this center.
   51          1
                                   No pseudopotential on this center.
   52          1
                                   No pseudopotential on this center.
 ======================================================================================================
 There are   464 symmetry adapted cartesian basis functions of A   symmetry.
 There are   436 symmetry adapted basis functions of A   symmetry.
   436 basis functions,   880 primitive gaussians,   464 cartesian basis functions
   105 alpha electrons      105 beta electrons
       nuclear repulsion energy      3004.0735742993 Hartrees.
 NAtoms=   52 NActive=   52 NUniq=   52 SFac= 1.00D+00 NAtFMM=   60 NAOKFM=F Big=F
 Integral buffers will be    131072 words long.
 Raffenetti 2 integral format.
 Two-electron integral symmetry is turned on.
 Nuclear repulsion after empirical dispersion term =     3003.9488108821 Hartrees.
 ------------------------------------------------------------------------------
 Polarizable Continuum Model (PCM)
 =================================
 Model                : PCM.
 Atomic radii         : SMD-Coulomb.
 Polarization charges : Total charges.
 Charge compensation  : None.
 Solution method      : On-the-fly selection.
 Cavity type          : VdW (van der Waals Surface) (Alpha=1.000).
 Cavity algorithm     : GePol (No added spheres)
                        Default sphere list used, NSphG=   52.
                        Lebedev-Laikov grids with approx.  5.0 points / Ang**2.
                        Smoothing algorithm: York/Karplus (Gamma=1.0000).
                        Polarization charges: spherical gaussians, with
                                              point-specific exponents (IZeta= 3).
                        Self-potential: point-specific (ISelfS= 7).
                        Self-field    : sphere-specific E.n sum rule (ISelfD= 2).
 Solvent              : Acetone, Eps=  20.493000 Eps(inf)=   1.846337
 ------------------------------------------------------------------------------
 ------------------------------------------------------------------------------
 Atomic radii for non-electrostatic terms: SMD-CDS.
 ------------------------------------------------------------------------------
 Nuclear repulsion after PCM non-electrostatic terms =     3003.9422303124 Hartrees.
 One-electron integrals computed using PRISM.
   1 Symmetry operations used in ECPInt.
 ECPInt:  NShTT=   13203 NPrTT=   81964 LenC2=   11348 LenP2D=   39404.
 LDataN:  DoStor=T MaxTD1= 4 Len=   56
 NBasis=   436 RedAO= T EigKep=  4.38D-04  NBF=   436
 NBsUse=   436 1.00D-06 EigRej= -1.00D+00 NBFU=   436
 ExpMin= 2.30D-02 ExpMax= 5.48D+03 ExpMxC= 8.25D+02 IAcc=3 IRadAn=         5 AccDes= 0.00D+00
 Harris functional with IExCor=  402 and IRadAn=       5 diagonalized for initial guess.
 HarFok:  IExCor=  402 AccDes= 0.00D+00 IRadAn=         5 IDoV= 1 UseB2=F ITyADJ=14
 ICtDFT=  3500011 ScaDFX=  1.000000  1.000000  1.000000  1.000000
 FoFCou: FMM=F IPFlag=           0 FMFlag=      100000 FMFlg1=           0
         NFxFlg=           0 DoJE=T BraDBF=F KetDBF=T FulRan=T
         wScrn=  0.000000 ICntrl=       500 IOpCl=  0 I1Cent=   200000004 NGrid=           0
         NMat0=    1 NMatS0=      1 NMatT0=    0 NMatD0=    1 NMtDS0=    0 NMtDT0=    0
 Petite list used in FoFCou.
 Requested convergence on RMS density matrix=1.00D-08 within 128 cycles.
 Requested convergence on MAX density matrix=1.00D-06.
 Requested convergence on             energy=1.00D-06.
 No special actions if energy rises.
 Inv3:  Mode=1 IEnd=    39639675.
 Iteration    1 A*A^-1 deviation from unit magnitude is 4.00D-15 for    229.
 Iteration    1 A*A^-1 deviation from orthogonality  is 2.26D-15 for   1497    899.
 Iteration    1 A^-1*A deviation from unit magnitude is 3.44D-15 for     88.
 Iteration    1 A^-1*A deviation from orthogonality  is 1.98D-12 for   1635   1596.
 EnCoef did     5 forward-backward iterations
 Restarting incremental Fock formation.
 Error on total polarization charges =  0.04531
 SCF Done:  E(RB3LYP) =  -1365.93100963     A.U. after   21 cycles
            NFock= 21  Conv=0.24D-08     -V/T= 2.0505
 SMD-CDS (non-electrostatic) energy       (kcal/mol) =      -4.13
 (included in total energy above)

 **********************************************************************

            Population analysis using the SCF Density.

 **********************************************************************

 Orbital symmetries:
       Occupied  (A) (A) (A) (A) (A) (A) (A) (A) (A) (A) (A) (A)
                 (A) (A) (A) (A) (A) (A) (A) (A) (A) (A) (A) (A)
                 (A) (A) (A) (A) (A) (A) (A) (A) (A) (A) (A) (A)
                 (A) (A) (A) (A) (A) (A) (A) (A) (A) (A) (A) (A)
                 (A) (A) (A) (A) (A) (A) (A) (A) (A) (A) (A) (A)
                 (A) (A) (A) (A) (A) (A) (A) (A) (A) (A) (A) (A)
                 (A) (A) (A) (A) (A) (A) (A) (A) (A) (A) (A) (A)
                 (A) (A) (A) (A) (A) (A) (A) (A) (A) (A) (A) (A)
                 (A) (A) (A) (A) (A) (A) (A) (A) (A)
       Virtual   (A) (A) (A) (A) (A) (A) (A) (A) (A) (A) (A) (A)
                 (A) (A) (A) (A) (A) (A) (A) (A) (A) (A) (A) (A)
                 (A) (A) (A) (A) (A) (A) (A) (A) (A) (A) (A) (A)
                 (A) (A) (A) (A) (A) (A) (A) (A) (A) (A) (A) (A)
                 (A) (A) (A) (A) (A) (A) (A) (A) (A) (A) (A) (A)
                 (A) (A) (A) (A) (A) (A) (A) (A) (A) (A) (A) (A)
                 (A) (A) (A) (A) (A) (A) (A) (A) (A) (A) (A) (A)
                 (A) (A) (A) (A) (A) (A) (A) (A) (A) (A) (A) (A)
                 (A) (A) (A) (A) (A) (A) (A) (A) (A) (A) (A) (A)
                 (A) (A) (A) (A) (A) (A) (A) (A) (A) (A) (A) (A)
                 (A) (A) (A) (A) (A) (A) (A) (A) (A) (A) (A) (A)
                 (A) (A) (A) (A) (A) (A) (A) (A) (A) (A) (A) (A)
                 (A) (A) (A) (A) (A) (A) (A) (A) (A) (A) (A) (A)
                 (A) (A) (A) (A) (A) (A) (A) (A) (A) (A) (A) (A)
                 (A) (A) (A) (A) (A) (A) (A) (A) (A) (A) (A) (A)
                 (A) (A) (A) (A) (A) (A) (A) (A) (A) (A) (A) (A)
                 (A) (A) (A) (A) (A) (A) (A) (A) (A) (A) (A) (A)
                 (A) (A) (A) (A) (A) (A) (A) (A) (A) (A) (A) (A)
                 (A) (A) (A) (A) (A) (A) (A) (A) (A) (A) (A) (A)
                 (A) (A) (A) (A) (A) (A) (A) (A) (A) (A) (A) (A)
                 (A) (A) (A) (A) (A) (A) (A) (A) (A) (A) (A) (A)
                 (A) (A) (A) (A) (A) (A) (A) (A) (A) (A) (A) (A)
                 (A) (A) (A) (A) (A) (A) (A) (A) (A) (A) (A) (A)
                 (A) (A) (A) (A) (A) (A) (A) (A) (A) (A) (A) (A)
                 (A) (A) (A) (A) (A) (A) (A) (A) (A) (A) (A) (A)
                 (A) (A) (A) (A) (A) (A) (A) (A) (A) (A) (A) (A)
                 (A) (A) (A) (A) (A) (A) (A) (A) (A) (A) (A) (A)
                 (A) (A) (A) (A) (A) (A) (A)
 The electronic state is 1-A.
 Alpha  occ. eigenvalues --  -19.16669 -19.16611 -19.12764 -19.12710 -14.40962
 Alpha  occ. eigenvalues --  -14.40946 -14.40597 -14.40365 -10.23666 -10.23459
 Alpha  occ. eigenvalues --  -10.21390 -10.21350 -10.18494 -10.18412 -10.17525
 Alpha  occ. eigenvalues --  -10.17490 -10.17474 -10.17471 -10.17446 -10.17421
 Alpha  occ. eigenvalues --  -10.17367 -10.17308 -10.16958 -10.16827 -10.16805
 Alpha  occ. eigenvalues --  -10.15791  -3.74503  -2.44538  -2.43704  -2.42680
 Alpha  occ. eigenvalues --   -1.09088  -1.08557  -1.06877  -1.06344  -0.90616
 Alpha  occ. eigenvalues --   -0.89410  -0.85751  -0.81927  -0.80946  -0.80594
 Alpha  occ. eigenvalues --   -0.75278  -0.74630  -0.74174  -0.74165  -0.70654
 Alpha  occ. eigenvalues --   -0.70526  -0.68416  -0.66409  -0.62335  -0.60318
 Alpha  occ. eigenvalues --   -0.60024  -0.58754  -0.54914  -0.53546  -0.52924
 Alpha  occ. eigenvalues --   -0.52118  -0.51313  -0.50866  -0.49437  -0.49008
 Alpha  occ. eigenvalues --   -0.47635  -0.47026  -0.46636  -0.46085  -0.45276
 Alpha  occ. eigenvalues --   -0.44494  -0.43389  -0.42819  -0.42302  -0.42289
 Alpha  occ. eigenvalues --   -0.42056  -0.41922  -0.41522  -0.40890  -0.40599
 Alpha  occ. eigenvalues --   -0.39983  -0.39612  -0.39233  -0.38802  -0.38331
 Alpha  occ. eigenvalues --   -0.38097  -0.38040  -0.37602  -0.37350  -0.36746
 Alpha  occ. eigenvalues --   -0.36392  -0.34949  -0.34337  -0.34239  -0.33294
 Alpha  occ. eigenvalues --   -0.32908  -0.30976  -0.30410  -0.28351  -0.28036
 Alpha  occ. eigenvalues --   -0.27765  -0.26444  -0.26229  -0.25170  -0.25047
 Alpha  occ. eigenvalues --   -0.24915  -0.22379  -0.20241  -0.19823  -0.19503
 Alpha virt. eigenvalues --   -0.09198  -0.03792  -0.03419  -0.00434   0.00226
 Alpha virt. eigenvalues --    0.00510   0.02605   0.02845   0.03318   0.05916
 Alpha virt. eigenvalues --    0.06720   0.06778   0.07840   0.11052   0.12265
 Alpha virt. eigenvalues --    0.12475   0.13626   0.14394   0.14635   0.15049
 Alpha virt. eigenvalues --    0.15544   0.16216   0.16551   0.16882   0.17400
 Alpha virt. eigenvalues --    0.17572   0.18058   0.18179   0.18609   0.18895
 Alpha virt. eigenvalues --    0.19274   0.19376   0.19885   0.20315   0.21382
 Alpha virt. eigenvalues --    0.21862   0.22665   0.23133   0.23474   0.24568
 Alpha virt. eigenvalues --    0.24640   0.25132   0.25771   0.25937   0.26817
 Alpha virt. eigenvalues --    0.27073   0.28022   0.28679   0.29520   0.30120
 Alpha virt. eigenvalues --    0.30592   0.31932   0.32277   0.33099   0.34332
 Alpha virt. eigenvalues --    0.35042   0.36261   0.36877   0.40190   0.41169
 Alpha virt. eigenvalues --    0.42312   0.42519   0.42640   0.44962   0.47102
 Alpha virt. eigenvalues --    0.48023   0.49960   0.51091   0.51900   0.52992
 Alpha virt. eigenvalues --    0.53853   0.53997   0.54808   0.55807   0.56351
 Alpha virt. eigenvalues --    0.56605   0.57417   0.57800   0.57884   0.58228
 Alpha virt. eigenvalues --    0.59581   0.59966   0.60374   0.60664   0.60828
 Alpha virt. eigenvalues --    0.61328   0.62250   0.62699   0.63035   0.63437
 Alpha virt. eigenvalues --    0.63978   0.65103   0.66002   0.66984   0.67833
 Alpha virt. eigenvalues --    0.68083   0.69333   0.69808   0.69908   0.70402
 Alpha virt. eigenvalues --    0.70464   0.71141   0.72301   0.73197   0.74494
 Alpha virt. eigenvalues --    0.74842   0.75417   0.76647   0.77435   0.77996
 Alpha virt. eigenvalues --    0.78668   0.79978   0.81718   0.82070   0.83037
 Alpha virt. eigenvalues --    0.83630   0.84388   0.84573   0.85117   0.85348
 Alpha virt. eigenvalues --    0.85471   0.85927   0.86808   0.87269   0.87545
 Alpha virt. eigenvalues --    0.88247   0.89312   0.89827   0.89968   0.90140
 Alpha virt. eigenvalues --    0.90631   0.91245   0.91366   0.92021   0.92628
 Alpha virt. eigenvalues --    0.92779   0.93786   0.94274   0.95010   0.95900
 Alpha virt. eigenvalues --    0.96326   0.96669   0.96729   0.98273   0.98984
 Alpha virt. eigenvalues --    0.99915   1.00612   1.01063   1.02409   1.03056
 Alpha virt. eigenvalues --    1.03648   1.03803   1.04775   1.05644   1.06047
 Alpha virt. eigenvalues --    1.06748   1.08179   1.09931   1.10360   1.10798
 Alpha virt. eigenvalues --    1.11652   1.12049   1.12986   1.14648   1.16349
 Alpha virt. eigenvalues --    1.16821   1.17513   1.19677   1.20429   1.21253
 Alpha virt. eigenvalues --    1.22410   1.24048   1.24402   1.25299   1.26629
 Alpha virt. eigenvalues --    1.28228   1.28574   1.29054   1.30623   1.30761
 Alpha virt. eigenvalues --    1.33781   1.34499   1.35440   1.35648   1.36727
 Alpha virt. eigenvalues --    1.36971   1.37995   1.38186   1.39069   1.39351
 Alpha virt. eigenvalues --    1.39483   1.40841   1.42219   1.43789   1.44497
 Alpha virt. eigenvalues --    1.44851   1.46306   1.46827   1.49204   1.49809
 Alpha virt. eigenvalues --    1.50165   1.50825   1.51238   1.52400   1.53178
 Alpha virt. eigenvalues --    1.54794   1.59126   1.60218   1.61793   1.62546
 Alpha virt. eigenvalues --    1.64541   1.68910   1.71066   1.74101   1.74642
 Alpha virt. eigenvalues --    1.75412   1.75864   1.77026   1.77650   1.78601
 Alpha virt. eigenvalues --    1.79323   1.80060   1.80368   1.80937   1.81984
 Alpha virt. eigenvalues --    1.82304   1.82424   1.83002   1.84238   1.85185
 Alpha virt. eigenvalues --    1.87208   1.88046   1.89935   1.90285   1.91288
 Alpha virt. eigenvalues --    1.91473   1.92550   1.93504   1.93930   1.94948
 Alpha virt. eigenvalues --    1.95686   1.97283   1.97643   1.98986   1.99602
 Alpha virt. eigenvalues --    2.00201   2.00711   2.01707   2.02542   2.05303
 Alpha virt. eigenvalues --    2.06398   2.09420   2.10038   2.11090   2.12831
 Alpha virt. eigenvalues --    2.12985   2.14006   2.14901   2.15293   2.16192
 Alpha virt. eigenvalues --    2.16511   2.17202   2.19392   2.19898   2.20756
 Alpha virt. eigenvalues --    2.21407   2.23605   2.23803   2.26573   2.28131
 Alpha virt. eigenvalues --    2.28438   2.29247   2.29662   2.30909   2.32078
 Alpha virt. eigenvalues --    2.32834   2.32927   2.33126   2.34194   2.34360
 Alpha virt. eigenvalues --    2.34648   2.35607   2.36454   2.37304   2.39401
 Alpha virt. eigenvalues --    2.40149   2.44525   2.45398   2.46456   2.51296
 Alpha virt. eigenvalues --    2.51826   2.52678   2.52938   2.54262   2.55590
 Alpha virt. eigenvalues --    2.56574   2.57277   2.58683   2.59865   2.60630
 Alpha virt. eigenvalues --    2.64156   2.64541   2.64869   2.65767   2.66271
 Alpha virt. eigenvalues --    2.67738   2.68517   2.70835   2.74718   2.76313
 Alpha virt. eigenvalues --    2.76822   2.77176   2.78092   2.82076   2.85764
 Alpha virt. eigenvalues --    2.87079   2.90995   2.91395   2.93461   2.96037
 Alpha virt. eigenvalues --    3.02657   3.04999   3.05666   3.08491   3.10085
 Alpha virt. eigenvalues --    3.11373   3.20199   3.29532   3.32517   3.46508
 Alpha virt. eigenvalues --   21.75368
          Condensed to atoms (all electrons):
 Mulliken charges:
               1
     1  Co   0.328162
     2  N   -0.161163
     3  O   -0.572983
     4  C    0.324643
     5  C   -0.544959
     6  H    0.198456
     7  H    0.200134
     8  H    0.205823
     9  N   -0.079276
    10  O   -0.557054
    11  C    0.269567
    12  C   -0.548047
    13  H    0.186778
    14  H    0.190430
    15  H    0.189795
    16  N   -0.169572
    17  O   -0.566189
    18  C    0.322697
    19  C   -0.546281
    20  H    0.199251
    21  H    0.205886
    22  H    0.196093
    23  N   -0.080172
    24  O   -0.559527
    25  C    0.273755
    26  C   -0.549221
    27  H    0.186798
    28  H    0.190306
    29  H    0.189347
    30  H    0.471244
    31  H    0.471588
    32  C   -0.402758
    33  H    0.189356
    34  H    0.197577
    35  C    0.230609
    36  C   -0.245151
    37  H    0.148001
    38  C   -0.555228
    39  H    0.179529
    40  H    0.168242
    41  H    0.181245
    42  C    0.134915
    43  C   -0.197621
    44  C   -0.199720
    45  C   -0.156102
    46  H    0.154903
    47  C   -0.158746
    48  H    0.158907
    49  C   -0.151884
    50  H    0.152718
    51  H    0.152749
    52  H    0.152146
 Sum of Mulliken charges =  -0.00000
 Mulliken charges with hydrogens summed into heavy atoms:
               1
     1  Co   0.328162
     2  N   -0.161163
     3  O   -0.101739
     4  C    0.324643
     5  C    0.059455
     9  N   -0.079276
    10  O   -0.557054
    11  C    0.269567
    12  C    0.018956
    16  N   -0.169572
    17  O   -0.094601
    18  C    0.322697
    19  C    0.054950
    23  N   -0.080172
    24  O   -0.559527
    25  C    0.273755
    26  C    0.017230
    32  C   -0.015825
    35  C    0.230609
    36  C   -0.097151
    38  C   -0.026211
    42  C    0.134915
    43  C   -0.042717
    44  C   -0.040813
    45  C   -0.003384
    47  C   -0.005996
    49  C    0.000262
 Electronic spatial extent (au):  <R**2>=          10305.0539
 Charge=             -0.0000 electrons
 Dipole moment (field-independent basis, Debye):
    X=              0.1821    Y=              0.4501    Z=              0.7230  Tot=              0.8709
 Quadrupole moment (field-independent basis, Debye-Ang):
   XX=           -142.0094   YY=           -167.4343   ZZ=           -162.6309
   XY=            -21.0009   XZ=              0.1586   YZ=             11.1138
 Traceless Quadrupole moment (field-independent basis, Debye-Ang):
   XX=             15.3488   YY=            -10.0761   ZZ=             -5.2727
   XY=            -21.0009   XZ=              0.1586   YZ=             11.1138
 Octapole moment (field-independent basis, Debye-Ang**2):
  XXX=             91.3902  YYY=             22.1341  ZZZ=             11.0086  XYY=             22.1171
  XXY=            -55.9814  XXZ=             11.0374  XZZ=              4.6199  YZZ=             21.0426
  YYZ=             27.0211  XYZ=             25.4667
 Hexadecapole moment (field-independent basis, Debye-Ang**3):
 XXXX=          -7885.1519 YYYY=          -3130.8036 ZZZZ=          -1643.1950 XXXY=           -246.6003
 XXXZ=             -8.3687 YYYX=           -130.4859 YYYZ=             62.7683 ZZZX=            -10.4101
 ZZZY=              1.2733 XXYY=          -1985.8740 XXZZ=          -1698.2895 YYZZ=           -778.9662
 XXYZ=            -36.8726 YYXZ=            -66.8089 ZZXY=            -26.6377
 N-N= 3.003942230312D+03 E-N=-9.199390312908D+03  KE= 1.300227357467D+03
 Unable to Open any file for archive entry.
 1\1\GINC-N204\SP\RB3LYP\GenECP\C18H25Co1N4O4\CJD\02-Mar-2023\0\\# B3LY
 P/genecp em=GD3BJ int=fine scrf=(smd,solvent=acetone)\\Template\\0,1\C
 o,0,-1.2901718943,-0.0273473301,-0.4365390614\N,0,-2.8254132765,1.0472
 093913,-0.5127851512\O,0,-3.0932965768,1.9998977419,-1.4512751598\C,0,
 -3.6982722149,0.8246140976,0.4165264635\C,0,-5.0034173477,1.5371103828
 ,0.5173192809\H,0,-5.8100988375,0.831393969,0.6989654723\H,0,-5.189988
 1546,2.0874807533,-0.4013615133\H,0,-4.9723671967,2.2413201794,1.34749
 2947\N,0,-2.0980249288,-0.6554919381,1.1551671174\O,0,-1.5701037159,-1
 .5422812532,1.9413099607\C,0,-3.2843958588,-0.1647390573,1.3817655974\
 C,0,-4.1338074209,-0.5624917636,2.5464706637\H,0,-4.4203919773,0.31125
 91706,3.1278217864\H,0,-3.5619441208,-1.2434543116,3.1737573434\H,0,-5
 .0388214523,-1.0673848489,2.2111496102\N,0,0.0829170681,-1.3160018925,
 -0.4865741966\O,0,0.427248947,-2.1679266396,0.5198822975\C,0,0.7179019
 159,-1.3901584756,-1.6109678361\C,0,1.8183697647,-2.3579516091,-1.8809
 877887\H,0,1.8402522454,-3.1117290901,-1.0981224172\H,0,2.7729793288,-
 1.8339096104,-1.8852859537\H,0,1.6832357872,-2.8312236051,-2.850264538
 9\N,0,-0.6466985706,0.3841969775,-2.1524546452\O,0,-1.1306269819,1.326
 4056742,-2.9014493248\C,0,0.2856155929,-0.4184040816,-2.5853994122\C,0
 ,0.8780885691,-0.3286162313,-3.9554236325\H,0,1.9590275156,-0.22098571
 86,-3.8987797508\H,0,0.4530834838,0.5365598956,-4.4604300522\H,0,0.649
 2405503,-1.2223109542,-4.5345702539\H,0,-2.3364830762,1.8849249689,-2.
 1509827358\H,0,-0.3120914642,-2.0218951049,1.2326374638\C,0,-0.2695580
 763,1.4710096454,0.4792120646\H,0,-0.5768511657,2.3620601901,-0.067035
 8107\H,0,-0.6792646627,1.4508020313,1.4889216537\C,0,1.1681138329,1.27
 37946079,0.4539289186\C,0,1.7565576728,0.5134411985,1.4122388842\H,0,1
 .1003879298,0.0241583335,2.1212123796\C,0,1.9279414336,1.9449999305,-0
 .6543050108\H,0,2.2041280723,2.9545959935,-0.351662017\H,0,2.833471064
 ,1.3995027207,-0.9041714181\H,0,1.3035589524,2.0297133001,-1.538911006
 7\C,0,3.1586871558,0.1755816329,1.567087298\C,0,3.4798921619,-1.110447
 8239,2.0186003506\C,0,4.2037579657,1.0679069177,1.3143254296\C,0,4.795
 3180252,-1.5022664889,2.1651636395\H,0,2.6800012869,-1.8071932509,2.22
 13186064\C,0,5.519778301,0.6770179316,1.4821009981\H,0,3.9842153546,2.
 083495189,1.0282940431\C,0,5.8228181651,-0.6101054419,1.8956805215\H,0
 ,5.0238010041,-2.5045095727,2.4979239051\H,0,6.3154404286,1.3827232103
 ,1.2911475772\H,0,6.8520807461,-0.9137644102,2.0182523245\\Version=ES6
 4L-G16RevC.01\State=1-A\HF=-1365.9310096\RMSD=2.385e-09\Dipole=-0.0725
 454,-0.2464545,-0.2267404\Quadrupole=15.269499,-6.5304253,-8.7390737,-
 1.3903936,-11.4449605,10.1941161\PG=C01 [X(C18H25Co1N4O4)]\\@
 The archive entry for this job was punched.


 There are more things in heaven and earth, Horatio,
 than are dreamt of in your philosophy.
                   -- Hamlet, Act I, Scene 5
 Job cpu time:       0 days  0 hours 20 minutes  9.7 seconds.
 Elapsed time:       0 days  0 hours  1 minutes 19.1 seconds.
 File lengths (MBytes):  RWF=    324 Int=      0 D2E=      0 Chk=     14 Scr=      1
 Normal termination of Gaussian 16 at Thu Mar  2 08:16:55 2023.
