 Entering Gaussian System, Link 0=g16
 Initial command:
 /opt/local/g16/l1.exe "/data/tmp/cjd/Gau-60330.inp" -scrdir="/data/tmp/cjd/"
 Entering Link 1 = /opt/local/g16/l1.exe PID=     60331.
  
 Copyright (c) 1988-2019, Gaussian, Inc.  All Rights Reserved.
  
 This is part of the Gaussian(R) 16 program.  It is based on
 the Gaussian(R) 09 system (copyright 2009, Gaussian, Inc.),
 the Gaussian(R) 03 system (copyright 2003, Gaussian, Inc.),
 the Gaussian(R) 98 system (copyright 1998, Gaussian, Inc.),
 the Gaussian(R) 94 system (copyright 1995, Gaussian, Inc.),
 the Gaussian 92(TM) system (copyright 1992, Gaussian, Inc.),
 the Gaussian 90(TM) system (copyright 1990, Gaussian, Inc.),
 the Gaussian 88(TM) system (copyright 1988, Gaussian, Inc.),
 the Gaussian 86(TM) system (copyright 1986, Carnegie Mellon
 University), and the Gaussian 82(TM) system (copyright 1983,
 Carnegie Mellon University). Gaussian is a federally registered
 trademark of Gaussian, Inc.
  
 This software contains proprietary and confidential information,
 including trade secrets, belonging to Gaussian, Inc.
  
 This software is provided under written license and may be
 used, copied, transmitted, or stored only in accord with that
 written license.
  
 The following legend is applicable only to US Government
 contracts under FAR:
  
                    RESTRICTED RIGHTS LEGEND
  
 Use, reproduction and disclosure by the US Government is
 subject to restrictions as set forth in subparagraphs (a)
 and (c) of the Commercial Computer Software - Restricted
 Rights clause in FAR 52.227-19.
  
 Gaussian, Inc.
 340 Quinnipiac St., Bldg. 40, Wallingford CT 06492
  
  
 ---------------------------------------------------------------
 Warning -- This program may not be used in any manner that
 competes with the business of Gaussian, Inc. or will provide
 assistance to any competitor of Gaussian, Inc.  The licensee
 of this program is prohibited from giving any competitor of
 Gaussian, Inc. access to this program.  By using this program,
 the user acknowledges that Gaussian, Inc. is engaged in the
 business of creating and licensing software in the field of
 computational chemistry and represents and warrants to the
 licensee that it is not a competitor of Gaussian, Inc. and that
 it will not use this program in any manner prohibited above.
 ---------------------------------------------------------------
  

 Cite this work as:
 Gaussian 16, Revision C.01,
 M. J. Frisch, G. W. Trucks, H. B. Schlegel, G. E. Scuseria, 
 M. A. Robb, J. R. Cheeseman, G. Scalmani, V. Barone, 
 G. A. Petersson, H. Nakatsuji, X. Li, M. Caricato, A. V. Marenich, 
 J. Bloino, B. G. Janesko, R. Gomperts, B. Mennucci, H. P. Hratchian, 
 J. V. Ortiz, A. F. Izmaylov, J. L. Sonnenberg, D. Williams-Young, 
 F. Ding, F. Lipparini, F. Egidi, J. Goings, B. Peng, A. Petrone, 
 T. Henderson, D. Ranasinghe, V. G. Zakrzewski, J. Gao, N. Rega, 
 G. Zheng, W. Liang, M. Hada, M. Ehara, K. Toyota, R. Fukuda, 
 J. Hasegawa, M. Ishida, T. Nakajima, Y. Honda, O. Kitao, H. Nakai, 
 T. Vreven, K. Throssell, J. A. Montgomery, Jr., J. E. Peralta, 
 F. Ogliaro, M. J. Bearpark, J. J. Heyd, E. N. Brothers, K. N. Kudin, 
 V. N. Staroverov, T. A. Keith, R. Kobayashi, J. Normand, 
 K. Raghavachari, A. P. Rendell, J. C. Burant, S. S. Iyengar, 
 J. Tomasi, M. Cossi, J. M. Millam, M. Klene, C. Adamo, R. Cammi, 
 J. W. Ochterski, R. L. Martin, K. Morokuma, O. Farkas, 
 J. B. Foresman, and D. J. Fox, Gaussian, Inc., Wallingford CT, 2019.
 
 ******************************************
 Gaussian 16:  ES64L-G16RevC.01  3-Jul-2019
                 2-Mar-2023 
 ******************************************
 %nproc=16
 Will use up to   16 processors via shared memory.
 %mem=60GB
 -----------------------------------------------------------
 # B3LYP/genecp em=GD3BJ int=fine scrf=(smd,solvent=acetone)
 -----------------------------------------------------------
 1/38=1,172=1/1;
 2/12=2,17=6,18=5,40=1/2;
 3/5=7,11=2,16=1,17=8,25=1,30=1,70=32201,72=19,74=-5,75=-4,124=41/1,2,3;
 4//1;
 5/5=2,38=5,53=19/2;
 6/7=2,8=2,9=2,10=2,28=1/1;
 99/5=1,9=1/99;
 --------
 Template
 --------
 Symbolic Z-matrix:
 Charge =  0 Multiplicity = 1
 Co                   -1.00186  -0.4499   -0.80546 
 N                    -1.19574   1.38852  -0.45249 
 O                    -1.22464   2.38861  -1.38308 
 C                    -1.31587   1.69877   0.79801 
 C                    -1.50102   3.09036   1.29793 
 H                    -2.35521   3.14146   1.96932 
 H                    -1.65144   3.76417   0.45846 
 H                    -0.61616   3.40119   1.85109 
 N                    -0.97989  -0.55894   1.08738 
 O                    -0.8358   -1.66288   1.75621 
 C                    -1.21454   0.57207   1.69137 
 C                    -1.3305    0.70796   3.17571 
 H                    -0.57196   1.38905   3.5566 
 H                    -1.19166  -0.27296   3.62561 
 H                    -2.3111    1.09102   3.45394 
 N                    -1.0582   -2.2984   -1.11364 
 O                    -0.82413  -3.27857  -0.19495 
 C                    -1.37393  -2.63883  -2.32258 
 C                    -1.51543  -4.05037  -2.77962 
 H                    -1.47955  -4.71719  -1.92197 
 H                    -0.70025  -4.30086  -3.45671 
 H                    -2.45301  -4.1838   -3.31394 
 N                    -1.35053  -0.36155  -2.64906 
 O                    -1.46906   0.74653  -3.30555 
 C                    -1.55774  -1.5192   -3.21238 
 C                    -1.93125  -1.6804   -4.65123 
 H                    -1.92971  -0.69842  -5.11982 
 H                    -2.92435  -2.11701  -4.74735 
 H                    -1.21924  -2.3255   -5.16161 
 H                    -1.30426   1.88906  -2.28235 
 H                    -0.77628  -2.77149   0.70703 
 C                     0.97826  -0.28864  -1.19518 
 H                     1.22179  -1.18927  -1.75711 
 H                     1.03176   0.60045  -1.82236 
 C                     1.72634  -0.16464   0.04118 
 C                     2.01557   1.07753   0.51254 
 H                     1.72096   1.91509  -0.10897 
 C                     2.20091  -1.43028   0.69201 
 H                     2.34619  -2.20332  -0.05834 
 H                     3.13486  -1.26806   1.22305 
 H                     1.45912  -1.80032   1.39856 
 C                     2.7088    1.45924   1.72468 
 C                     2.65971   0.71517   2.90817 
 C                     3.42127   2.66617   1.73548 
 C                     3.32131   1.14854   4.04202 
 H                     2.06287  -0.18008   2.95281 
 C                     4.09384   3.08688   2.86472 
 H                     3.45385   3.26362   0.83556 
 C                     4.05154   2.32627   4.0241 
 H                     3.26437   0.56394   4.94891 
 H                     4.64887   4.01365   2.84696 
 H                     4.5737    2.65628   4.90993 
 
 Stoichiometry    C18H25CoN4O4
 Framework group  C1[X(C18H25CoN4O4)]
 Deg. of freedom   150
 Full point group                 C1      NOp   1
 Largest Abelian subgroup         C1      NOp   1
 Largest concise Abelian subgroup C1      NOp   1
                         Standard orientation:                         
 ---------------------------------------------------------------------
 Center     Atomic      Atomic             Coordinates (Angstroms)
 Number     Number       Type             X           Y           Z
 ---------------------------------------------------------------------
      1         27           0       -1.345626    0.248707    0.273798
      2          7           0       -0.344716    1.839953    0.363693
      3          8           0       -0.546234    2.961824   -0.389837
      4          6           0        0.612289    1.839250    1.234666
      5          6           0        1.512453    3.000068    1.485518
      6          1           0        1.546804    3.230486    2.547942
      7          1           0        1.157094    3.865448    0.932174
      8          1           0        2.522299    2.757332    1.158611
      9          7           0       -0.057227   -0.341658    1.533450
     10          8           0       -0.025652   -1.535030    2.044955
     11          6           0        0.767656    0.586327    1.930270
     12          6           0        1.809536    0.372007    2.980847
     13          1           0        2.803267    0.548879    2.573962
     14          1           0        1.742147   -0.655824    3.331452
     15          1           0        1.654935    1.045467    3.822441
     16          7           0       -2.454679   -1.257834    0.398033
     17          8           0       -2.141632   -2.445383    0.990689
     18          6           0       -3.631511   -1.111209   -0.122239
     19          6           0       -4.686956   -2.163355   -0.102871
     20          1           0       -4.377310   -2.979255    0.545134
     21          1           0       -4.839366   -2.549527   -1.109529
     22          1           0       -5.629221   -1.748895    0.247434
     23          7           0       -2.785214    0.945492   -0.711246
     24          8           0       -2.792425    2.128570   -1.233865
     25          6           0       -3.832136    0.169255   -0.754123
     26          6           0       -5.117706    0.555221   -1.412996
     27          1           0       -4.987279    1.529872   -1.878723
     28          1           0       -5.924053    0.616459   -0.683495
     29          1           0       -5.392944   -0.174051   -2.171948
     30          1           0       -1.452905    2.791300   -0.851847
     31          1           0       -1.246671   -2.255672    1.476526
     32          6           0       -0.476545   -0.341576   -1.456815
     33          1           0       -1.159641   -1.083517   -1.868045
     34          1           0       -0.472679    0.571136   -2.051479
     35          6           0        0.851525   -0.865076   -1.200394
     36          6           0        1.917591   -0.026045   -1.291750
     37          1           0        1.713787    0.986410   -1.620347
     38          6           0        0.973126   -2.333267   -0.917050
     39          1           0        0.164477   -2.874496   -1.401692
     40          1           0        1.924566   -2.720288   -1.271379
     41          1           0        0.896189   -2.525685    0.152274
     42          6           0        3.319386   -0.295944   -1.051526
     43          6           0        3.775699   -1.227149   -0.112738
     44          6           0        4.274110    0.453141   -1.752799
     45          6           0        5.129642   -1.418685    0.090477
     46          1           0        3.067601   -1.767625    0.492375
     47          6           0        5.624831    0.247160   -1.558689
     48          1           0        3.939354    1.190782   -2.468116
     49          6           0        6.060171   -0.695112   -0.638316
     50          1           0        5.462163   -2.136718    0.826215
     51          1           0        6.343949    0.825712   -2.120300
     52          1           0        7.116801   -0.854420   -0.482069
 ---------------------------------------------------------------------
 Rotational constants (GHZ):           0.3329611           0.1205862           0.1132007
 General basis read from cards:  (5D, 7F)
 ======================================================================================================
                                       Pseudopotential Parameters
 ======================================================================================================
  Center     Atomic      Valence      Angular      Power
  Number     Number     Electrons     Momentum     of R      Exponent        Coefficient   SO-Coeffient
 ======================================================================================================
    1         27           17
                                      D and up 
                                                     1      434.1076104      -10.00000000    0.00000000
                                                     2       78.8402758      -66.72402760    0.00000000
                                                     2       19.6037749      -11.71922430    0.00000000
                                      S - D
                                                     0      151.2307582        3.00000000    0.00000000
                                                     1      169.6790026       20.15531100    0.00000000
                                                     2       64.9909423      413.37622440    0.00000000
                                                     2       12.5076287      133.87277050    0.00000000
                                      P - D
                                                     0       92.7319924        5.00000000    0.00000000
                                                     1      121.1910183        6.18923530    0.00000000
                                                     2       48.6265909      326.32159190    0.00000000
                                                     2       11.9966971       73.87889700    0.00000000
    2          7
                                   No pseudopotential on this center.
    3          8
                                   No pseudopotential on this center.
    4          6
                                   No pseudopotential on this center.
    5          6
                                   No pseudopotential on this center.
    6          1
                                   No pseudopotential on this center.
    7          1
                                   No pseudopotential on this center.
    8          1
                                   No pseudopotential on this center.
    9          7
                                   No pseudopotential on this center.
   10          8
                                   No pseudopotential on this center.
   11          6
                                   No pseudopotential on this center.
   12          6
                                   No pseudopotential on this center.
   13          1
                                   No pseudopotential on this center.
   14          1
                                   No pseudopotential on this center.
   15          1
                                   No pseudopotential on this center.
   16          7
                                   No pseudopotential on this center.
   17          8
                                   No pseudopotential on this center.
   18          6
                                   No pseudopotential on this center.
   19          6
                                   No pseudopotential on this center.
   20          1
                                   No pseudopotential on this center.
   21          1
                                   No pseudopotential on this center.
   22          1
                                   No pseudopotential on this center.
   23          7
                                   No pseudopotential on this center.
   24          8
                                   No pseudopotential on this center.
   25          6
                                   No pseudopotential on this center.
   26          6
                                   No pseudopotential on this center.
   27          1
                                   No pseudopotential on this center.
   28          1
                                   No pseudopotential on this center.
   29          1
                                   No pseudopotential on this center.
   30          1
                                   No pseudopotential on this center.
   31          1
                                   No pseudopotential on this center.
   32          6
                                   No pseudopotential on this center.
   33          1
                                   No pseudopotential on this center.
   34          1
                                   No pseudopotential on this center.
   35          6
                                   No pseudopotential on this center.
   36          6
                                   No pseudopotential on this center.
   37          1
                                   No pseudopotential on this center.
   38          6
                                   No pseudopotential on this center.
   39          1
                                   No pseudopotential on this center.
   40          1
                                   No pseudopotential on this center.
   41          1
                                   No pseudopotential on this center.
   42          6
                                   No pseudopotential on this center.
   43          6
                                   No pseudopotential on this center.
   44          6
                                   No pseudopotential on this center.
   45          6
                                   No pseudopotential on this center.
   46          1
                                   No pseudopotential on this center.
   47          6
                                   No pseudopotential on this center.
   48          1
                                   No pseudopotential on this center.
   49          6
                                   No pseudopotential on this center.
   50          1
                                   No pseudopotential on this center.
   51          1
                                   No pseudopotential on this center.
   52          1
                                   No pseudopotential on this center.
 ======================================================================================================
 There are   464 symmetry adapted cartesian basis functions of A   symmetry.
 There are   436 symmetry adapted basis functions of A   symmetry.
   436 basis functions,   880 primitive gaussians,   464 cartesian basis functions
   105 alpha electrons      105 beta electrons
       nuclear repulsion energy      3011.8906498461 Hartrees.
 NAtoms=   52 NActive=   52 NUniq=   52 SFac= 1.00D+00 NAtFMM=   60 NAOKFM=F Big=F
 Integral buffers will be    131072 words long.
 Raffenetti 2 integral format.
 Two-electron integral symmetry is turned on.
 Nuclear repulsion after empirical dispersion term =     3011.7652624383 Hartrees.
 ------------------------------------------------------------------------------
 Polarizable Continuum Model (PCM)
 =================================
 Model                : PCM.
 Atomic radii         : SMD-Coulomb.
 Polarization charges : Total charges.
 Charge compensation  : None.
 Solution method      : On-the-fly selection.
 Cavity type          : VdW (van der Waals Surface) (Alpha=1.000).
 Cavity algorithm     : GePol (No added spheres)
                        Default sphere list used, NSphG=   52.
                        Lebedev-Laikov grids with approx.  5.0 points / Ang**2.
                        Smoothing algorithm: York/Karplus (Gamma=1.0000).
                        Polarization charges: spherical gaussians, with
                                              point-specific exponents (IZeta= 3).
                        Self-potential: point-specific (ISelfS= 7).
                        Self-field    : sphere-specific E.n sum rule (ISelfD= 2).
 Solvent              : Acetone, Eps=  20.493000 Eps(inf)=   1.846337
 ------------------------------------------------------------------------------
 ------------------------------------------------------------------------------
 Atomic radii for non-electrostatic terms: SMD-CDS.
 ------------------------------------------------------------------------------
 Nuclear repulsion after PCM non-electrostatic terms =     3011.7588626758 Hartrees.
 One-electron integrals computed using PRISM.
   1 Symmetry operations used in ECPInt.
 ECPInt:  NShTT=   13203 NPrTT=   81964 LenC2=   11399 LenP2D=   39495.
 LDataN:  DoStor=T MaxTD1= 4 Len=   56
 NBasis=   436 RedAO= T EigKep=  4.35D-04  NBF=   436
 NBsUse=   436 1.00D-06 EigRej= -1.00D+00 NBFU=   436
 ExpMin= 2.30D-02 ExpMax= 5.48D+03 ExpMxC= 8.25D+02 IAcc=3 IRadAn=         5 AccDes= 0.00D+00
 Harris functional with IExCor=  402 and IRadAn=       5 diagonalized for initial guess.
 HarFok:  IExCor=  402 AccDes= 0.00D+00 IRadAn=         5 IDoV= 1 UseB2=F ITyADJ=14
 ICtDFT=  3500011 ScaDFX=  1.000000  1.000000  1.000000  1.000000
 FoFCou: FMM=F IPFlag=           0 FMFlag=      100000 FMFlg1=           0
         NFxFlg=           0 DoJE=T BraDBF=F KetDBF=T FulRan=T
         wScrn=  0.000000 ICntrl=       500 IOpCl=  0 I1Cent=   200000004 NGrid=           0
         NMat0=    1 NMatS0=      1 NMatT0=    0 NMatD0=    1 NMtDS0=    0 NMtDT0=    0
 Petite list used in FoFCou.
 Requested convergence on RMS density matrix=1.00D-08 within 128 cycles.
 Requested convergence on MAX density matrix=1.00D-06.
 Requested convergence on             energy=1.00D-06.
 No special actions if energy rises.
 Inv3:  Mode=1 IEnd=    40848300.
 Iteration    1 A*A^-1 deviation from unit magnitude is 2.89D-15 for   1144.
 Iteration    1 A*A^-1 deviation from orthogonality  is 2.77D-15 for   1584    911.
 Iteration    1 A^-1*A deviation from unit magnitude is 2.89D-15 for    383.
 Iteration    1 A^-1*A deviation from orthogonality  is 3.57D-10 for   3164   3055.
 Iteration    2 A*A^-1 deviation from unit magnitude is 2.66D-15 for     51.
 Iteration    2 A*A^-1 deviation from orthogonality  is 4.09D-15 for   3055   2664.
 Iteration    2 A^-1*A deviation from unit magnitude is 2.22D-15 for   2942.
 Iteration    2 A^-1*A deviation from orthogonality  is 1.19D-15 for   1627    531.
 EnCoef did     5 forward-backward iterations
 Error on total polarization charges =  0.04484
 SCF Done:  E(RB3LYP) =  -1365.93378106     A.U. after   20 cycles
            NFock= 20  Conv=0.61D-08     -V/T= 2.0505
 SMD-CDS (non-electrostatic) energy       (kcal/mol) =      -4.02
 (included in total energy above)

 **********************************************************************

            Population analysis using the SCF Density.

 **********************************************************************

 Orbital symmetries:
       Occupied  (A) (A) (A) (A) (A) (A) (A) (A) (A) (A) (A) (A)
                 (A) (A) (A) (A) (A) (A) (A) (A) (A) (A) (A) (A)
                 (A) (A) (A) (A) (A) (A) (A) (A) (A) (A) (A) (A)
                 (A) (A) (A) (A) (A) (A) (A) (A) (A) (A) (A) (A)
                 (A) (A) (A) (A) (A) (A) (A) (A) (A) (A) (A) (A)
                 (A) (A) (A) (A) (A) (A) (A) (A) (A) (A) (A) (A)
                 (A) (A) (A) (A) (A) (A) (A) (A) (A) (A) (A) (A)
                 (A) (A) (A) (A) (A) (A) (A) (A) (A) (A) (A) (A)
                 (A) (A) (A) (A) (A) (A) (A) (A) (A)
       Virtual   (A) (A) (A) (A) (A) (A) (A) (A) (A) (A) (A) (A)
                 (A) (A) (A) (A) (A) (A) (A) (A) (A) (A) (A) (A)
                 (A) (A) (A) (A) (A) (A) (A) (A) (A) (A) (A) (A)
                 (A) (A) (A) (A) (A) (A) (A) (A) (A) (A) (A) (A)
                 (A) (A) (A) (A) (A) (A) (A) (A) (A) (A) (A) (A)
                 (A) (A) (A) (A) (A) (A) (A) (A) (A) (A) (A) (A)
                 (A) (A) (A) (A) (A) (A) (A) (A) (A) (A) (A) (A)
                 (A) (A) (A) (A) (A) (A) (A) (A) (A) (A) (A) (A)
                 (A) (A) (A) (A) (A) (A) (A) (A) (A) (A) (A) (A)
                 (A) (A) (A) (A) (A) (A) (A) (A) (A) (A) (A) (A)
                 (A) (A) (A) (A) (A) (A) (A) (A) (A) (A) (A) (A)
                 (A) (A) (A) (A) (A) (A) (A) (A) (A) (A) (A) (A)
                 (A) (A) (A) (A) (A) (A) (A) (A) (A) (A) (A) (A)
                 (A) (A) (A) (A) (A) (A) (A) (A) (A) (A) (A) (A)
                 (A) (A) (A) (A) (A) (A) (A) (A) (A) (A) (A) (A)
                 (A) (A) (A) (A) (A) (A) (A) (A) (A) (A) (A) (A)
                 (A) (A) (A) (A) (A) (A) (A) (A) (A) (A) (A) (A)
                 (A) (A) (A) (A) (A) (A) (A) (A) (A) (A) (A) (A)
                 (A) (A) (A) (A) (A) (A) (A) (A) (A) (A) (A) (A)
                 (A) (A) (A) (A) (A) (A) (A) (A) (A) (A) (A) (A)
                 (A) (A) (A) (A) (A) (A) (A) (A) (A) (A) (A) (A)
                 (A) (A) (A) (A) (A) (A) (A) (A) (A) (A) (A) (A)
                 (A) (A) (A) (A) (A) (A) (A) (A) (A) (A) (A) (A)
                 (A) (A) (A) (A) (A) (A) (A) (A) (A) (A) (A) (A)
                 (A) (A) (A) (A) (A) (A) (A) (A) (A) (A) (A) (A)
                 (A) (A) (A) (A) (A) (A) (A) (A) (A) (A) (A) (A)
                 (A) (A) (A) (A) (A) (A) (A) (A) (A) (A) (A) (A)
                 (A) (A) (A) (A) (A) (A) (A)
 The electronic state is 1-A.
 Alpha  occ. eigenvalues --  -19.16733 -19.16616 -19.12823 -19.12803 -14.41191
 Alpha  occ. eigenvalues --  -14.40854 -14.40553 -14.40499 -10.23679 -10.23547
 Alpha  occ. eigenvalues --  -10.21349 -10.21255 -10.18657 -10.18495 -10.17635
 Alpha  occ. eigenvalues --  -10.17607 -10.17570 -10.17531 -10.17498 -10.17471
 Alpha  occ. eigenvalues --  -10.17467 -10.17407 -10.17077 -10.16834 -10.16742
 Alpha  occ. eigenvalues --  -10.15357  -3.74561  -2.44597  -2.43774  -2.42729
 Alpha  occ. eigenvalues --   -1.09104  -1.08556  -1.07024  -1.06423  -0.90646
 Alpha  occ. eigenvalues --   -0.89464  -0.85868  -0.81935  -0.80983  -0.80634
 Alpha  occ. eigenvalues --   -0.75365  -0.74666  -0.74290  -0.74205  -0.70656
 Alpha  occ. eigenvalues --   -0.70520  -0.68323  -0.66429  -0.62342  -0.60357
 Alpha  occ. eigenvalues --   -0.60148  -0.58843  -0.54930  -0.53624  -0.52980
 Alpha  occ. eigenvalues --   -0.52136  -0.51396  -0.50923  -0.49474  -0.49073
 Alpha  occ. eigenvalues --   -0.47731  -0.46949  -0.46695  -0.45994  -0.45621
 Alpha  occ. eigenvalues --   -0.44572  -0.43433  -0.42772  -0.42484  -0.42291
 Alpha  occ. eigenvalues --   -0.42098  -0.41979  -0.41384  -0.40878  -0.40613
 Alpha  occ. eigenvalues --   -0.40134  -0.39526  -0.38953  -0.38881  -0.38156
 Alpha  occ. eigenvalues --   -0.38061  -0.37855  -0.37595  -0.37351  -0.36731
 Alpha  occ. eigenvalues --   -0.36415  -0.34777  -0.34626  -0.34304  -0.33490
 Alpha  occ. eigenvalues --   -0.33129  -0.30992  -0.30574  -0.28303  -0.27954
 Alpha  occ. eigenvalues --   -0.27732  -0.26806  -0.26431  -0.25231  -0.25101
 Alpha  occ. eigenvalues --   -0.25053  -0.22473  -0.20366  -0.19801  -0.19402
 Alpha virt. eigenvalues --   -0.09414  -0.03875  -0.03319  -0.00503   0.00149
 Alpha virt. eigenvalues --    0.00376   0.02630   0.02812   0.03257   0.06544
 Alpha virt. eigenvalues --    0.06668   0.06981   0.07821   0.11160   0.12477
 Alpha virt. eigenvalues --    0.12766   0.13384   0.14398   0.14831   0.14899
 Alpha virt. eigenvalues --    0.15554   0.15802   0.16429   0.16820   0.17252
 Alpha virt. eigenvalues --    0.17433   0.17724   0.18125   0.18491   0.18755
 Alpha virt. eigenvalues --    0.19234   0.19589   0.20215   0.20363   0.20600
 Alpha virt. eigenvalues --    0.22008   0.22914   0.23390   0.23996   0.24767
 Alpha virt. eigenvalues --    0.24885   0.25058   0.25879   0.26437   0.26969
 Alpha virt. eigenvalues --    0.27644   0.27967   0.28991   0.29696   0.30027
 Alpha virt. eigenvalues --    0.30221   0.31623   0.32165   0.33959   0.34499
 Alpha virt. eigenvalues --    0.35187   0.35993   0.36689   0.40052   0.41153
 Alpha virt. eigenvalues --    0.42018   0.42655   0.42952   0.44689   0.46862
 Alpha virt. eigenvalues --    0.48406   0.49493   0.50966   0.51792   0.52957
 Alpha virt. eigenvalues --    0.53855   0.53938   0.54914   0.55459   0.55716
 Alpha virt. eigenvalues --    0.56151   0.56949   0.57212   0.58324   0.58424
 Alpha virt. eigenvalues --    0.59052   0.59680   0.60363   0.60396   0.60767
 Alpha virt. eigenvalues --    0.61630   0.61929   0.62581   0.63213   0.63746
 Alpha virt. eigenvalues --    0.64283   0.65298   0.66150   0.66854   0.67763
 Alpha virt. eigenvalues --    0.68711   0.68959   0.69629   0.69753   0.70310
 Alpha virt. eigenvalues --    0.71304   0.71395   0.72726   0.73939   0.74789
 Alpha virt. eigenvalues --    0.75515   0.75762   0.75979   0.77592   0.78532
 Alpha virt. eigenvalues --    0.79817   0.80699   0.82057   0.82409   0.83585
 Alpha virt. eigenvalues --    0.84085   0.84114   0.84915   0.85055   0.85301
 Alpha virt. eigenvalues --    0.85503   0.86153   0.86856   0.87318   0.88122
 Alpha virt. eigenvalues --    0.88304   0.88751   0.89352   0.90071   0.90675
 Alpha virt. eigenvalues --    0.90744   0.91477   0.92092   0.92414   0.93226
 Alpha virt. eigenvalues --    0.93308   0.93930   0.94543   0.94671   0.95501
 Alpha virt. eigenvalues --    0.96149   0.96458   0.97194   0.97905   0.98286
 Alpha virt. eigenvalues --    0.99421   1.00901   1.01321   1.02364   1.02465
 Alpha virt. eigenvalues --    1.03478   1.03805   1.04590   1.05738   1.05996
 Alpha virt. eigenvalues --    1.06720   1.08073   1.08453   1.10336   1.10986
 Alpha virt. eigenvalues --    1.12834   1.13513   1.13896   1.15467   1.16033
 Alpha virt. eigenvalues --    1.16492   1.18995   1.19916   1.20841   1.21563
 Alpha virt. eigenvalues --    1.22087   1.23324   1.24549   1.26255   1.26704
 Alpha virt. eigenvalues --    1.27982   1.28222   1.28971   1.30287   1.31260
 Alpha virt. eigenvalues --    1.33290   1.34770   1.35115   1.36102   1.36444
 Alpha virt. eigenvalues --    1.37167   1.37914   1.38632   1.39023   1.39645
 Alpha virt. eigenvalues --    1.40052   1.40778   1.42571   1.43265   1.44414
 Alpha virt. eigenvalues --    1.44708   1.45732   1.46977   1.47613   1.49833
 Alpha virt. eigenvalues --    1.49942   1.50728   1.51856   1.52856   1.53415
 Alpha virt. eigenvalues --    1.56996   1.57250   1.60758   1.62634   1.64326
 Alpha virt. eigenvalues --    1.65306   1.67335   1.71924   1.74027   1.74831
 Alpha virt. eigenvalues --    1.75398   1.76119   1.76767   1.77828   1.78491
 Alpha virt. eigenvalues --    1.79319   1.79548   1.80448   1.80798   1.81143
 Alpha virt. eigenvalues --    1.81926   1.82674   1.83390   1.84045   1.86209
 Alpha virt. eigenvalues --    1.87024   1.87888   1.88909   1.89901   1.90245
 Alpha virt. eigenvalues --    1.91595   1.92354   1.93354   1.94406   1.95035
 Alpha virt. eigenvalues --    1.96152   1.97454   1.98730   1.99118   2.00138
 Alpha virt. eigenvalues --    2.00362   2.01372   2.02177   2.02709   2.05639
 Alpha virt. eigenvalues --    2.06693   2.08682   2.10590   2.11771   2.12731
 Alpha virt. eigenvalues --    2.12924   2.13766   2.14599   2.14752   2.16025
 Alpha virt. eigenvalues --    2.16495   2.17687   2.18748   2.19236   2.20433
 Alpha virt. eigenvalues --    2.22080   2.23819   2.24134   2.27485   2.28151
 Alpha virt. eigenvalues --    2.28402   2.29389   2.30297   2.31115   2.32018
 Alpha virt. eigenvalues --    2.32861   2.33129   2.33433   2.33828   2.34189
 Alpha virt. eigenvalues --    2.34631   2.35032   2.36337   2.37679   2.38261
 Alpha virt. eigenvalues --    2.41452   2.43988   2.46627   2.48900   2.51658
 Alpha virt. eigenvalues --    2.51765   2.53132   2.53574   2.54285   2.55004
 Alpha virt. eigenvalues --    2.56342   2.57271   2.58675   2.59300   2.60817
 Alpha virt. eigenvalues --    2.63834   2.64215   2.65122   2.66148   2.66472
 Alpha virt. eigenvalues --    2.67566   2.67877   2.71527   2.74556   2.75994
 Alpha virt. eigenvalues --    2.76284   2.77401   2.78544   2.81980   2.85379
 Alpha virt. eigenvalues --    2.87424   2.90804   2.91551   2.93412   2.96627
 Alpha virt. eigenvalues --    3.02596   3.04904   3.06360   3.08868   3.10253
 Alpha virt. eigenvalues --    3.10946   3.21326   3.29694   3.32556   3.46428
 Alpha virt. eigenvalues --   21.74995
          Condensed to atoms (all electrons):
 Mulliken charges:
               1
     1  Co   0.328543
     2  N   -0.171112
     3  O   -0.571452
     4  C    0.330365
     5  C   -0.547995
     6  H    0.199046
     7  H    0.199619
     8  H    0.204480
     9  N   -0.090535
    10  O   -0.549855
    11  C    0.274246
    12  C   -0.549684
    13  H    0.186974
    14  H    0.189571
    15  H    0.187345
    16  N   -0.169195
    17  O   -0.572343
    18  C    0.325590
    19  C   -0.546490
    20  H    0.200299
    21  H    0.205225
    22  H    0.199172
    23  N   -0.064052
    24  O   -0.555098
    25  C    0.268251
    26  C   -0.546931
    27  H    0.190441
    28  H    0.189623
    29  H    0.186909
    30  H    0.469725
    31  H    0.472069
    32  C   -0.396779
    33  H    0.186140
    34  H    0.190532
    35  C    0.236451
    36  C   -0.267523
    37  H    0.153750
    38  C   -0.557726
    39  H    0.164671
    40  H    0.163267
    41  H    0.194083
    42  C    0.149702
    43  C   -0.202149
    44  C   -0.203827
    45  C   -0.159049
    46  H    0.165487
    47  C   -0.154062
    48  H    0.153528
    49  C   -0.151240
    50  H    0.154154
    51  H    0.154194
    52  H    0.153642
 Sum of Mulliken charges =  -0.00000
 Mulliken charges with hydrogens summed into heavy atoms:
               1
     1  Co   0.328543
     2  N   -0.171112
     3  O   -0.101727
     4  C    0.330365
     5  C    0.055150
     9  N   -0.090535
    10  O   -0.549855
    11  C    0.274246
    12  C    0.014206
    16  N   -0.169195
    17  O   -0.100273
    18  C    0.325590
    19  C    0.058206
    23  N   -0.064052
    24  O   -0.555098
    25  C    0.268251
    26  C    0.020042
    32  C   -0.020107
    35  C    0.236451
    36  C   -0.113772
    38  C   -0.035705
    42  C    0.149702
    43  C   -0.036662
    44  C   -0.050299
    45  C   -0.004895
    47  C    0.000131
    49  C    0.002403
 Electronic spatial extent (au):  <R**2>=          10284.7145
 Charge=              0.0000 electrons
 Dipole moment (field-independent basis, Debye):
    X=             -0.1776    Y=              0.1640    Z=              0.9172  Tot=              0.9485
 Quadrupole moment (field-independent basis, Debye-Ang):
   XX=           -133.4564   YY=           -173.3544   ZZ=           -164.3706
   XY=             13.8008   XZ=              5.1574   YZ=             10.9369
 Traceless Quadrupole moment (field-independent basis, Debye-Ang):
   XX=             23.6041   YY=            -16.2939   ZZ=             -7.3101
   XY=             13.8008   XZ=              5.1574   YZ=             10.9369
 Octapole moment (field-independent basis, Debye-Ang**2):
  XXX=           -115.5629  YYY=              7.1570  ZZZ=             26.3329  XYY=              3.4128
  XXY=            -33.5240  XXZ=             -2.6308  XZZ=            -14.3823  YZZ=             26.9089
  YYZ=             15.6460  XYZ=            -28.7023
 Hexadecapole moment (field-independent basis, Debye-Ang**3):
 XXXX=          -8112.6026 YYYY=          -2478.5551 ZZZZ=          -1797.8082 XXXY=            162.1591
 XXXZ=             24.2376 YYYX=             52.0951 YYYZ=             20.0939 ZZZX=             44.0358
 ZZZY=              9.4810 XXYY=          -1970.8080 XXZZ=          -1847.2595 YYZZ=           -690.2643
 XXYZ=            -36.5711 YYXZ=             33.7754 ZZXY=             64.9018
 N-N= 3.011758862676D+03 E-N=-9.214866757524D+03  KE= 1.300237586762D+03
 Unable to Open any file for archive entry.
 1\1\GINC-N204\SP\RB3LYP\GenECP\C18H25Co1N4O4\CJD\02-Mar-2023\0\\# B3LY
 P/genecp em=GD3BJ int=fine scrf=(smd,solvent=acetone)\\Template\\0,1\C
 o,0,-1.0018569191,-0.4499037082,-0.8054625314\N,0,-1.1957375437,1.3885
 164352,-0.4524937209\O,0,-1.2246415338,2.3886117618,-1.3830771007\C,0,
 -1.3158714972,1.6987681521,0.798012309\C,0,-1.5010199644,3.0903594194,
 1.2979257957\H,0,-2.3552071361,3.1414630124,1.9693212037\H,0,-1.651439
 3914,3.7641711108,0.4584588635\H,0,-0.6161638706,3.4011864731,1.851092
 0738\N,0,-0.9798936569,-0.5589448778,1.0873798533\O,0,-0.8357953083,-1
 .6628824159,1.7562075306\C,0,-1.2145433228,0.572066182,1.6913734648\C,
 0,-1.330497498,0.7079592175,3.1757075072\H,0,-0.5719606476,1.389046858
 9,3.5566035282\H,0,-1.1916625333,-0.2729643829,3.6256129528\H,0,-2.311
 100234,1.091020834,3.4539388306\N,0,-1.0582029929,-2.298403276,-1.1136
 376195\O,0,-0.8241302725,-3.2785719588,-0.1949464955\C,0,-1.3739254411
 ,-2.6388316059,-2.3225802651\C,0,-1.5154319832,-4.0503711491,-2.779615
 7128\H,0,-1.4795516327,-4.7171851396,-1.9219700079\H,0,-0.7002537456,-
 4.3008561259,-3.4567132824\H,0,-2.4530076763,-4.1838029878,-3.31393917
 09\N,0,-1.3505313655,-0.3615454322,-2.6490606893\O,0,-1.4690623892,0.7
 465296936,-3.3055472901\C,0,-1.5577420056,-1.5191979215,-3.2123830947\
 C,0,-1.9312468497,-1.6803964476,-4.6512303251\H,0,-1.9297082207,-0.698
 419883,-5.1198217191\H,0,-2.9243476164,-2.1170079801,-4.7473453003\H,0
 ,-1.2192414784,-2.3255004125,-5.1616140819\H,0,-1.3042574648,1.8890555
 945,-2.2823479098\H,0,-0.7762783223,-2.7714863973,0.7070280234\C,0,0.9
 782621656,-0.2886362399,-1.1951784973\H,0,1.2217916613,-1.1892661555,-
 1.7571082149\H,0,1.0317607381,0.6004467505,-1.8223557395\C,0,1.7263385
 262,-0.1646418672,0.0411799931\C,0,2.0155663769,1.077527759,0.51253612
 16\H,0,1.7209554219,1.9150886356,-0.1089719357\C,0,2.2009139269,-1.430
 284431,0.6920122866\H,0,2.3461905784,-2.203318628,-0.0583421207\H,0,3.
 1348613568,-1.2680561574,1.2230459384\H,0,1.4591191846,-1.8003162268,1
 .3985642948\C,0,2.7088032173,1.4592382745,1.7246843806\C,0,2.659707973
 3,0.7151709626,2.9081707858\C,0,3.4212652948,2.6661727019,1.7354775289
 \C,0,3.3213095183,1.1485438536,4.0420205967\H,0,2.0628715078,-0.180078
 8444,2.952805341\C,0,4.093842086,3.0868845131,2.8647232542\H,0,3.45385
 48127,3.2636236138,0.8355627384\C,0,4.0515382992,2.3262652513,4.024098
 8322\H,0,3.2643734277,0.5639398715,4.948910462\H,0,4.6488674623,4.0136
 484183,2.8469643475\H,0,4.5736952597,2.6562782551,4.9099338305\\Versio
 n=ES64L-G16RevC.01\State=1-A\HF=-1365.9337811\RMSD=6.125e-09\Dipole=-0
 .3283046,-0.0326566,0.1743901\Quadrupole=-2.6102299,0.080227,2.5300029
 ,4.7569294,2.1943462,19.853864\PG=C01 [X(C18H25Co1N4O4)]\\@
 The archive entry for this job was punched.


 EVERY WORD THAT YOU WRITE IS A BLOW THAT SMITES THE DEVIL.
     -- ST. BERNARD OF CLAIRVAUX
 Job cpu time:       0 days  0 hours 21 minutes 19.1 seconds.
 Elapsed time:       0 days  0 hours  1 minutes 22.1 seconds.
 File lengths (MBytes):  RWF=    331 Int=      0 D2E=      0 Chk=     14 Scr=      1
 Normal termination of Gaussian 16 at Thu Mar  2 08:03:30 2023.
