 Entering Gaussian System, Link 0=g16
 Initial command:
 /opt/local/g16/l1.exe "/data/tmp/cjd/Gau-6437.inp" -scrdir="/data/tmp/cjd/"
 Entering Link 1 = /opt/local/g16/l1.exe PID=      6438.
  
 Copyright (c) 1988-2019, Gaussian, Inc.  All Rights Reserved.
  
 This is part of the Gaussian(R) 16 program.  It is based on
 the Gaussian(R) 09 system (copyright 2009, Gaussian, Inc.),
 the Gaussian(R) 03 system (copyright 2003, Gaussian, Inc.),
 the Gaussian(R) 98 system (copyright 1998, Gaussian, Inc.),
 the Gaussian(R) 94 system (copyright 1995, Gaussian, Inc.),
 the Gaussian 92(TM) system (copyright 1992, Gaussian, Inc.),
 the Gaussian 90(TM) system (copyright 1990, Gaussian, Inc.),
 the Gaussian 88(TM) system (copyright 1988, Gaussian, Inc.),
 the Gaussian 86(TM) system (copyright 1986, Carnegie Mellon
 University), and the Gaussian 82(TM) system (copyright 1983,
 Carnegie Mellon University). Gaussian is a federally registered
 trademark of Gaussian, Inc.
  
 This software contains proprietary and confidential information,
 including trade secrets, belonging to Gaussian, Inc.
  
 This software is provided under written license and may be
 used, copied, transmitted, or stored only in accord with that
 written license.
  
 The following legend is applicable only to US Government
 contracts under FAR:
  
                    RESTRICTED RIGHTS LEGEND
  
 Use, reproduction and disclosure by the US Government is
 subject to restrictions as set forth in subparagraphs (a)
 and (c) of the Commercial Computer Software - Restricted
 Rights clause in FAR 52.227-19.
  
 Gaussian, Inc.
 340 Quinnipiac St., Bldg. 40, Wallingford CT 06492
  
  
 ---------------------------------------------------------------
 Warning -- This program may not be used in any manner that
 competes with the business of Gaussian, Inc. or will provide
 assistance to any competitor of Gaussian, Inc.  The licensee
 of this program is prohibited from giving any competitor of
 Gaussian, Inc. access to this program.  By using this program,
 the user acknowledges that Gaussian, Inc. is engaged in the
 business of creating and licensing software in the field of
 computational chemistry and represents and warrants to the
 licensee that it is not a competitor of Gaussian, Inc. and that
 it will not use this program in any manner prohibited above.
 ---------------------------------------------------------------
  

 Cite this work as:
 Gaussian 16, Revision C.01,
 M. J. Frisch, G. W. Trucks, H. B. Schlegel, G. E. Scuseria, 
 M. A. Robb, J. R. Cheeseman, G. Scalmani, V. Barone, 
 G. A. Petersson, H. Nakatsuji, X. Li, M. Caricato, A. V. Marenich, 
 J. Bloino, B. G. Janesko, R. Gomperts, B. Mennucci, H. P. Hratchian, 
 J. V. Ortiz, A. F. Izmaylov, J. L. Sonnenberg, D. Williams-Young, 
 F. Ding, F. Lipparini, F. Egidi, J. Goings, B. Peng, A. Petrone, 
 T. Henderson, D. Ranasinghe, V. G. Zakrzewski, J. Gao, N. Rega, 
 G. Zheng, W. Liang, M. Hada, M. Ehara, K. Toyota, R. Fukuda, 
 J. Hasegawa, M. Ishida, T. Nakajima, Y. Honda, O. Kitao, H. Nakai, 
 T. Vreven, K. Throssell, J. A. Montgomery, Jr., J. E. Peralta, 
 F. Ogliaro, M. J. Bearpark, J. J. Heyd, E. N. Brothers, K. N. Kudin, 
 V. N. Staroverov, T. A. Keith, R. Kobayashi, J. Normand, 
 K. Raghavachari, A. P. Rendell, J. C. Burant, S. S. Iyengar, 
 J. Tomasi, M. Cossi, J. M. Millam, M. Klene, C. Adamo, R. Cammi, 
 J. W. Ochterski, R. L. Martin, K. Morokuma, O. Farkas, 
 J. B. Foresman, and D. J. Fox, Gaussian, Inc., Wallingford CT, 2019.
 
 ******************************************
 Gaussian 16:  ES64L-G16RevC.01  3-Jul-2019
                 2-Mar-2023 
 ******************************************
 %nproc=16
 Will use up to   16 processors via shared memory.
 %mem=60GB
 -----------------------------------------------------------
 # B3LYP/genecp em=GD3BJ int=fine scrf=(smd,solvent=acetone)
 -----------------------------------------------------------
 1/38=1,172=1/1;
 2/12=2,17=6,18=5,40=1/2;
 3/5=7,11=2,16=1,17=8,25=1,30=1,70=32201,72=19,74=-5,75=-4,124=41/1,2,3;
 4//1;
 5/5=2,38=5,53=19/2;
 6/7=2,8=2,9=2,10=2,28=1/1;
 99/5=1,9=1/99;
 --------
 Template
 --------
 Symbolic Z-matrix:
 Charge =  0 Multiplicity = 1
 Co                   -1.06018  -0.65597  -0.53783 
 N                    -0.80075   1.19652  -0.30829 
 O                     0.07775   1.9839   -0.99186 
 C                    -1.59204   1.74954   0.5541 
 C                    -1.61601   3.21327   0.84098 
 H                    -1.62265   3.39248   1.91312 
 H                    -2.51618   3.65893   0.41908 
 H                    -0.74647   3.68495   0.39 
 N                    -2.28282  -0.4248    0.8715 
 O                    -2.97528  -1.38677   1.39587 
 C                    -2.45782   0.81589   1.23292 
 C                    -3.45102   1.2383    2.26859 
 H                    -4.03761   0.3688    2.55829 
 H                    -4.11293   2.00855   1.87791 
 H                    -2.94682   1.63045   3.15059 
 N                    -1.5559   -2.41355  -0.9673 
 O                    -2.35891  -3.22865  -0.2252 
 C                    -1.10018  -2.84833  -2.09812 
 C                    -1.41439  -4.19328  -2.65887 
 H                    -0.52625  -4.82227  -2.62446 
 H                    -1.73045  -4.10809  -3.69583 
 H                    -2.19951  -4.65967  -2.06942 
 N                    -0.03757  -0.80571  -2.12098 
 O                     0.74425   0.1222   -2.57648 
 C                    -0.22199  -1.92187  -2.77 
 C                     0.43433  -2.23516  -4.07689 
 H                     1.09412  -1.41014  -4.33795 
 H                    -0.30868  -2.35748  -4.86364 
 H                     1.01463  -3.15281  -4.00471 
 H                     0.49712   1.34513  -1.68959 
 H                    -2.69735  -2.61886   0.54267 
 C                     0.40956  -1.35316   0.66551 
 H                    -0.1099   -2.03222   1.34009 
 H                     1.05637  -1.89063  -0.02721 
 C                     1.08431  -0.26661   1.34666 
 C                     2.16198   0.31238   0.7499 
 H                     2.46402  -0.10748  -0.20204 
 C                     0.58755   0.10696   2.71399 
 H                     0.01518  -0.71251   3.14097 
 H                     1.42129   0.33928   3.37183 
 H                    -0.06883   0.97379   2.66527 
 C                     3.0137    1.39037   1.20104 
 C                     2.61372   2.40186   2.08066 
 C                     4.31981   1.44699   0.69247 
 C                     3.49018   3.40364   2.45355 
 H                     1.60177   2.43119   2.44386 
 C                     5.1967    2.4394    1.07868 
 H                     4.64351   0.68777  -0.00497 
 C                     4.78738   3.42261   1.9675 
 H                     3.15781   4.17952   3.12811 
 H                     6.2017    2.45445   0.68226 
 H                     5.47056   4.20327   2.26779 
 
 Stoichiometry    C18H25CoN4O4
 Framework group  C1[X(C18H25CoN4O4)]
 Deg. of freedom   150
 Full point group                 C1      NOp   1
 Largest Abelian subgroup         C1      NOp   1
 Largest concise Abelian subgroup C1      NOp   1
                         Standard orientation:                         
 ---------------------------------------------------------------------
 Center     Atomic      Atomic             Coordinates (Angstroms)
 Number     Number       Type             X           Y           Z
 ---------------------------------------------------------------------
      1         27           0        1.362415    0.205812    0.189922
      2          7           0       -0.084591    0.774796    1.254882
      3          8           0       -0.879898   -0.014143    2.032094
      4          6           0       -0.276084    2.054988    1.265798
      5          6           0       -1.313583    2.733094    2.095951
      6          1           0       -1.862789    3.459761    1.502670
      7          1           0       -0.839738    3.261631    2.922408
      8          1           0       -1.996483    1.989997    2.500188
      9          7           0        1.433507    2.025391   -0.277601
     10          8           0        2.284496    2.525544   -1.117567
     11          6           0        0.606383    2.783592    0.386886
     12          6           0        0.558867    4.271750    0.243291
     13          1           0        1.377896    4.581886   -0.402488
     14          1           0        0.657345    4.756892    1.212304
     15          1           0       -0.381148    4.586884   -0.207243
     16          7           0        2.984441   -0.286857   -0.613575
     17          8           0        3.724352    0.475263   -1.468934
     18          6           0        3.428700   -1.454555   -0.275072
     19          6           0        4.722555   -2.021475   -0.751106
     20          1           0        4.532375   -2.841531   -1.441728
     21          1           0        5.298413   -2.408858    0.086007
     22          1           0        5.290423   -1.251256   -1.266525
     23          7           0        1.440652   -1.551626    0.882603
     24          8           0        0.525080   -2.084196    1.629475
     25          6           0        2.539908   -2.190084    0.590959
     26          6           0        2.848027   -3.569549    1.079853
     27          1           0        1.998040   -3.928897    1.656508
     28          1           0        3.732016   -3.566320    1.715894
     29          1           0        3.027292   -4.242064    0.243418
     30          1           0       -0.458893   -0.955616    1.947763
     31          1           0        3.240480    1.392786   -1.472825
     32          6           0        0.358624   -0.329069   -1.483558
     33          1           0        0.854649    0.234025   -2.272808
     34          1           0        0.564766   -1.396195   -1.560004
     35          6           0       -1.054046   -0.030260   -1.361433
     36          6           0       -1.881338   -0.976465   -0.838929
     37          1           0       -1.419808   -1.919055   -0.570173
     38          6           0       -1.529302    1.292667   -1.890491
     39          1           0       -0.807708    1.694052   -2.597346
     40          1           0       -2.489885    1.181384   -2.387214
     41          1           0       -1.636174    2.017161   -1.085319
     42          6           0       -3.309563   -0.948896   -0.614384
     43          6           0       -4.055907    0.214346   -0.398328
     44          6           0       -3.987761   -2.176129   -0.573138
     45          6           0       -5.419480    0.150728   -0.180623
     46          1           0       -3.564612    1.170318   -0.358759
     47          6           0       -5.351084   -2.234925   -0.370997
     48          1           0       -3.427608   -3.088990   -0.716452
     49          6           0       -6.077038   -1.068678   -0.178321
     50          1           0       -5.975271    1.061130   -0.008140
     51          1           0       -5.852621   -3.191806   -0.355649
     52          1           0       -7.143729   -1.112390   -0.015237
 ---------------------------------------------------------------------
 Rotational constants (GHZ):           0.2719612           0.1354159           0.1088788
 General basis read from cards:  (5D, 7F)
 ======================================================================================================
                                       Pseudopotential Parameters
 ======================================================================================================
  Center     Atomic      Valence      Angular      Power
  Number     Number     Electrons     Momentum     of R      Exponent        Coefficient   SO-Coeffient
 ======================================================================================================
    1         27           17
                                      D and up 
                                                     1      434.1076104      -10.00000000    0.00000000
                                                     2       78.8402758      -66.72402760    0.00000000
                                                     2       19.6037749      -11.71922430    0.00000000
                                      S - D
                                                     0      151.2307582        3.00000000    0.00000000
                                                     1      169.6790026       20.15531100    0.00000000
                                                     2       64.9909423      413.37622440    0.00000000
                                                     2       12.5076287      133.87277050    0.00000000
                                      P - D
                                                     0       92.7319924        5.00000000    0.00000000
                                                     1      121.1910183        6.18923530    0.00000000
                                                     2       48.6265909      326.32159190    0.00000000
                                                     2       11.9966971       73.87889700    0.00000000
    2          7
                                   No pseudopotential on this center.
    3          8
                                   No pseudopotential on this center.
    4          6
                                   No pseudopotential on this center.
    5          6
                                   No pseudopotential on this center.
    6          1
                                   No pseudopotential on this center.
    7          1
                                   No pseudopotential on this center.
    8          1
                                   No pseudopotential on this center.
    9          7
                                   No pseudopotential on this center.
   10          8
                                   No pseudopotential on this center.
   11          6
                                   No pseudopotential on this center.
   12          6
                                   No pseudopotential on this center.
   13          1
                                   No pseudopotential on this center.
   14          1
                                   No pseudopotential on this center.
   15          1
                                   No pseudopotential on this center.
   16          7
                                   No pseudopotential on this center.
   17          8
                                   No pseudopotential on this center.
   18          6
                                   No pseudopotential on this center.
   19          6
                                   No pseudopotential on this center.
   20          1
                                   No pseudopotential on this center.
   21          1
                                   No pseudopotential on this center.
   22          1
                                   No pseudopotential on this center.
   23          7
                                   No pseudopotential on this center.
   24          8
                                   No pseudopotential on this center.
   25          6
                                   No pseudopotential on this center.
   26          6
                                   No pseudopotential on this center.
   27          1
                                   No pseudopotential on this center.
   28          1
                                   No pseudopotential on this center.
   29          1
                                   No pseudopotential on this center.
   30          1
                                   No pseudopotential on this center.
   31          1
                                   No pseudopotential on this center.
   32          6
                                   No pseudopotential on this center.
   33          1
                                   No pseudopotential on this center.
   34          1
                                   No pseudopotential on this center.
   35          6
                                   No pseudopotential on this center.
   36          6
                                   No pseudopotential on this center.
   37          1
                                   No pseudopotential on this center.
   38          6
                                   No pseudopotential on this center.
   39          1
                                   No pseudopotential on this center.
   40          1
                                   No pseudopotential on this center.
   41          1
                                   No pseudopotential on this center.
   42          6
                                   No pseudopotential on this center.
   43          6
                                   No pseudopotential on this center.
   44          6
                                   No pseudopotential on this center.
   45          6
                                   No pseudopotential on this center.
   46          1
                                   No pseudopotential on this center.
   47          6
                                   No pseudopotential on this center.
   48          1
                                   No pseudopotential on this center.
   49          6
                                   No pseudopotential on this center.
   50          1
                                   No pseudopotential on this center.
   51          1
                                   No pseudopotential on this center.
   52          1
                                   No pseudopotential on this center.
 ======================================================================================================
 There are   464 symmetry adapted cartesian basis functions of A   symmetry.
 There are   436 symmetry adapted basis functions of A   symmetry.
   436 basis functions,   880 primitive gaussians,   464 cartesian basis functions
   105 alpha electrons      105 beta electrons
       nuclear repulsion energy      2999.5984144744 Hartrees.
 NAtoms=   52 NActive=   52 NUniq=   52 SFac= 1.00D+00 NAtFMM=   60 NAOKFM=F Big=F
 Integral buffers will be    131072 words long.
 Raffenetti 2 integral format.
 Two-electron integral symmetry is turned on.
 Nuclear repulsion after empirical dispersion term =     2999.4742023914 Hartrees.
 ------------------------------------------------------------------------------
 Polarizable Continuum Model (PCM)
 =================================
 Model                : PCM.
 Atomic radii         : SMD-Coulomb.
 Polarization charges : Total charges.
 Charge compensation  : None.
 Solution method      : On-the-fly selection.
 Cavity type          : VdW (van der Waals Surface) (Alpha=1.000).
 Cavity algorithm     : GePol (No added spheres)
                        Default sphere list used, NSphG=   52.
                        Lebedev-Laikov grids with approx.  5.0 points / Ang**2.
                        Smoothing algorithm: York/Karplus (Gamma=1.0000).
                        Polarization charges: spherical gaussians, with
                                              point-specific exponents (IZeta= 3).
                        Self-potential: point-specific (ISelfS= 7).
                        Self-field    : sphere-specific E.n sum rule (ISelfD= 2).
 Solvent              : Acetone, Eps=  20.493000 Eps(inf)=   1.846337
 ------------------------------------------------------------------------------
 ------------------------------------------------------------------------------
 Atomic radii for non-electrostatic terms: SMD-CDS.
 ------------------------------------------------------------------------------
 Nuclear repulsion after PCM non-electrostatic terms =     2999.4678090267 Hartrees.
 One-electron integrals computed using PRISM.
   1 Symmetry operations used in ECPInt.
 ECPInt:  NShTT=   13203 NPrTT=   81964 LenC2=   11348 LenP2D=   39323.
 LDataN:  DoStor=T MaxTD1= 4 Len=   56
 NBasis=   436 RedAO= T EigKep=  4.30D-04  NBF=   436
 NBsUse=   436 1.00D-06 EigRej= -1.00D+00 NBFU=   436
 ExpMin= 2.30D-02 ExpMax= 5.48D+03 ExpMxC= 8.25D+02 IAcc=3 IRadAn=         5 AccDes= 0.00D+00
 Harris functional with IExCor=  402 and IRadAn=       5 diagonalized for initial guess.
 HarFok:  IExCor=  402 AccDes= 0.00D+00 IRadAn=         5 IDoV= 1 UseB2=F ITyADJ=14
 ICtDFT=  3500011 ScaDFX=  1.000000  1.000000  1.000000  1.000000
 FoFCou: FMM=F IPFlag=           0 FMFlag=      100000 FMFlg1=           0
         NFxFlg=           0 DoJE=T BraDBF=F KetDBF=T FulRan=T
         wScrn=  0.000000 ICntrl=       500 IOpCl=  0 I1Cent=   200000004 NGrid=           0
         NMat0=    1 NMatS0=      1 NMatT0=    0 NMatD0=    1 NMtDS0=    0 NMtDT0=    0
 Petite list used in FoFCou.
 Requested convergence on RMS density matrix=1.00D-08 within 128 cycles.
 Requested convergence on MAX density matrix=1.00D-06.
 Requested convergence on             energy=1.00D-06.
 No special actions if energy rises.
 Inv3:  Mode=1 IEnd=    40959075.
 Iteration    1 A*A^-1 deviation from unit magnitude is 3.22D-15 for   2573.
 Iteration    1 A*A^-1 deviation from orthogonality  is 2.89D-15 for   2233    728.
 Iteration    1 A^-1*A deviation from unit magnitude is 3.33D-15 for   2573.
 Iteration    1 A^-1*A deviation from orthogonality  is 2.48D-15 for   1012    188.
 EnCoef did     5 forward-backward iterations
 EnCoef did     4 forward-backward iterations
 Error on total polarization charges =  0.04560
 SCF Done:  E(RB3LYP) =  -1365.93189399     A.U. after   20 cycles
            NFock= 20  Conv=0.93D-08     -V/T= 2.0505
 SMD-CDS (non-electrostatic) energy       (kcal/mol) =      -4.01
 (included in total energy above)

 **********************************************************************

            Population analysis using the SCF Density.

 **********************************************************************

 Orbital symmetries:
       Occupied  (A) (A) (A) (A) (A) (A) (A) (A) (A) (A) (A) (A)
                 (A) (A) (A) (A) (A) (A) (A) (A) (A) (A) (A) (A)
                 (A) (A) (A) (A) (A) (A) (A) (A) (A) (A) (A) (A)
                 (A) (A) (A) (A) (A) (A) (A) (A) (A) (A) (A) (A)
                 (A) (A) (A) (A) (A) (A) (A) (A) (A) (A) (A) (A)
                 (A) (A) (A) (A) (A) (A) (A) (A) (A) (A) (A) (A)
                 (A) (A) (A) (A) (A) (A) (A) (A) (A) (A) (A) (A)
                 (A) (A) (A) (A) (A) (A) (A) (A) (A) (A) (A) (A)
                 (A) (A) (A) (A) (A) (A) (A) (A) (A)
       Virtual   (A) (A) (A) (A) (A) (A) (A) (A) (A) (A) (A) (A)
                 (A) (A) (A) (A) (A) (A) (A) (A) (A) (A) (A) (A)
                 (A) (A) (A) (A) (A) (A) (A) (A) (A) (A) (A) (A)
                 (A) (A) (A) (A) (A) (A) (A) (A) (A) (A) (A) (A)
                 (A) (A) (A) (A) (A) (A) (A) (A) (A) (A) (A) (A)
                 (A) (A) (A) (A) (A) (A) (A) (A) (A) (A) (A) (A)
                 (A) (A) (A) (A) (A) (A) (A) (A) (A) (A) (A) (A)
                 (A) (A) (A) (A) (A) (A) (A) (A) (A) (A) (A) (A)
                 (A) (A) (A) (A) (A) (A) (A) (A) (A) (A) (A) (A)
                 (A) (A) (A) (A) (A) (A) (A) (A) (A) (A) (A) (A)
                 (A) (A) (A) (A) (A) (A) (A) (A) (A) (A) (A) (A)
                 (A) (A) (A) (A) (A) (A) (A) (A) (A) (A) (A) (A)
                 (A) (A) (A) (A) (A) (A) (A) (A) (A) (A) (A) (A)
                 (A) (A) (A) (A) (A) (A) (A) (A) (A) (A) (A) (A)
                 (A) (A) (A) (A) (A) (A) (A) (A) (A) (A) (A) (A)
                 (A) (A) (A) (A) (A) (A) (A) (A) (A) (A) (A) (A)
                 (A) (A) (A) (A) (A) (A) (A) (A) (A) (A) (A) (A)
                 (A) (A) (A) (A) (A) (A) (A) (A) (A) (A) (A) (A)
                 (A) (A) (A) (A) (A) (A) (A) (A) (A) (A) (A) (A)
                 (A) (A) (A) (A) (A) (A) (A) (A) (A) (A) (A) (A)
                 (A) (A) (A) (A) (A) (A) (A) (A) (A) (A) (A) (A)
                 (A) (A) (A) (A) (A) (A) (A) (A) (A) (A) (A) (A)
                 (A) (A) (A) (A) (A) (A) (A) (A) (A) (A) (A) (A)
                 (A) (A) (A) (A) (A) (A) (A) (A) (A) (A) (A) (A)
                 (A) (A) (A) (A) (A) (A) (A) (A) (A) (A) (A) (A)
                 (A) (A) (A) (A) (A) (A) (A) (A) (A) (A) (A) (A)
                 (A) (A) (A) (A) (A) (A) (A) (A) (A) (A) (A) (A)
                 (A) (A) (A) (A) (A) (A) (A)
 The electronic state is 1-A.
 Alpha  occ. eigenvalues --  -19.16581 -19.16407 -19.12642 -19.12613 -14.40940
 Alpha  occ. eigenvalues --  -14.40880 -14.40539 -14.40362 -10.23571 -10.23513
 Alpha  occ. eigenvalues --  -10.21318 -10.21295 -10.18647 -10.18556 -10.17601
 Alpha  occ. eigenvalues --  -10.17562 -10.17536 -10.17488 -10.17474 -10.17437
 Alpha  occ. eigenvalues --  -10.17436 -10.17427 -10.17172 -10.16814 -10.16789
 Alpha  occ. eigenvalues --  -10.15959  -3.74332  -2.44367  -2.43571  -2.42481
 Alpha  occ. eigenvalues --   -1.08996  -1.08438  -1.06844  -1.06295  -0.90543
 Alpha  occ. eigenvalues --   -0.89348  -0.85834  -0.81855  -0.81035  -0.80537
 Alpha  occ. eigenvalues --   -0.75408  -0.74618  -0.74259  -0.74149  -0.70621
 Alpha  occ. eigenvalues --   -0.70500  -0.68619  -0.66416  -0.62276  -0.60287
 Alpha  occ. eigenvalues --   -0.60135  -0.58865  -0.54851  -0.53482  -0.53097
 Alpha  occ. eigenvalues --   -0.52038  -0.51240  -0.50814  -0.49537  -0.48939
 Alpha  occ. eigenvalues --   -0.47570  -0.46932  -0.46766  -0.46216  -0.45380
 Alpha  occ. eigenvalues --   -0.44438  -0.43442  -0.42553  -0.42386  -0.42183
 Alpha  occ. eigenvalues --   -0.42015  -0.41892  -0.41571  -0.40725  -0.40520
 Alpha  occ. eigenvalues --   -0.40002  -0.39720  -0.39249  -0.38835  -0.38253
 Alpha  occ. eigenvalues --   -0.38065  -0.37977  -0.37569  -0.37311  -0.36933
 Alpha  occ. eigenvalues --   -0.36534  -0.35039  -0.34304  -0.34278  -0.33376
 Alpha  occ. eigenvalues --   -0.33097  -0.30892  -0.30447  -0.28211  -0.27923
 Alpha  occ. eigenvalues --   -0.27662  -0.26769  -0.26158  -0.25052  -0.24987
 Alpha  occ. eigenvalues --   -0.24935  -0.22274  -0.20109  -0.19654  -0.19493
 Alpha virt. eigenvalues --   -0.09173  -0.03845  -0.03298  -0.00348   0.00276
 Alpha virt. eigenvalues --    0.00454   0.02606   0.02848   0.03281   0.06529
 Alpha virt. eigenvalues --    0.06768   0.06809   0.07335   0.11192   0.12393
 Alpha virt. eigenvalues --    0.12510   0.13679   0.14434   0.14581   0.14866
 Alpha virt. eigenvalues --    0.15309   0.15739   0.16664   0.16957   0.17088
 Alpha virt. eigenvalues --    0.17554   0.17743   0.18109   0.18254   0.18857
 Alpha virt. eigenvalues --    0.19284   0.19461   0.20090   0.20380   0.21664
 Alpha virt. eigenvalues --    0.22642   0.22925   0.23513   0.23750   0.24146
 Alpha virt. eigenvalues --    0.24889   0.25069   0.25560   0.25814   0.26751
 Alpha virt. eigenvalues --    0.26949   0.28350   0.28794   0.29568   0.30806
 Alpha virt. eigenvalues --    0.31073   0.31867   0.32231   0.33810   0.34572
 Alpha virt. eigenvalues --    0.35472   0.36463   0.36795   0.40432   0.41072
 Alpha virt. eigenvalues --    0.41412   0.42720   0.43175   0.44652   0.47104
 Alpha virt. eigenvalues --    0.48619   0.50227   0.51057   0.52456   0.53120
 Alpha virt. eigenvalues --    0.53743   0.54228   0.54910   0.55135   0.56359
 Alpha virt. eigenvalues --    0.56792   0.57209   0.57942   0.58146   0.58557
 Alpha virt. eigenvalues --    0.59107   0.59770   0.60090   0.60296   0.61077
 Alpha virt. eigenvalues --    0.61612   0.62113   0.62356   0.62886   0.63710
 Alpha virt. eigenvalues --    0.64254   0.65196   0.65772   0.66480   0.67499
 Alpha virt. eigenvalues --    0.68182   0.68594   0.69089   0.69985   0.70294
 Alpha virt. eigenvalues --    0.70958   0.72462   0.72517   0.73298   0.74807
 Alpha virt. eigenvalues --    0.75301   0.75564   0.76670   0.77265   0.78538
 Alpha virt. eigenvalues --    0.79012   0.80929   0.81362   0.82181   0.83443
 Alpha virt. eigenvalues --    0.83804   0.84602   0.84706   0.85113   0.85338
 Alpha virt. eigenvalues --    0.85578   0.86230   0.86732   0.87813   0.88391
 Alpha virt. eigenvalues --    0.88476   0.88862   0.89480   0.89994   0.90675
 Alpha virt. eigenvalues --    0.90790   0.91494   0.91680   0.91943   0.92536
 Alpha virt. eigenvalues --    0.93745   0.94271   0.94679   0.95327   0.95811
 Alpha virt. eigenvalues --    0.96293   0.96935   0.97470   0.97764   0.98373
 Alpha virt. eigenvalues --    0.99700   1.00799   1.02089   1.02562   1.02684
 Alpha virt. eigenvalues --    1.03780   1.04082   1.04850   1.05073   1.05408
 Alpha virt. eigenvalues --    1.07572   1.09045   1.09360   1.10158   1.10650
 Alpha virt. eigenvalues --    1.11618   1.12098   1.13911   1.15719   1.16432
 Alpha virt. eigenvalues --    1.17040   1.18320   1.19639   1.20585   1.22249
 Alpha virt. eigenvalues --    1.22784   1.24523   1.24778   1.25205   1.26575
 Alpha virt. eigenvalues --    1.27576   1.29425   1.29652   1.30228   1.31642
 Alpha virt. eigenvalues --    1.33250   1.34235   1.35542   1.36317   1.36986
 Alpha virt. eigenvalues --    1.37150   1.37545   1.38604   1.39244   1.39398
 Alpha virt. eigenvalues --    1.39834   1.41551   1.42456   1.43702   1.44263
 Alpha virt. eigenvalues --    1.44746   1.45168   1.46556   1.48307   1.49750
 Alpha virt. eigenvalues --    1.50342   1.50665   1.51637   1.52106   1.53098
 Alpha virt. eigenvalues --    1.56284   1.59617   1.60358   1.61182   1.63283
 Alpha virt. eigenvalues --    1.65835   1.68735   1.70425   1.74115   1.74312
 Alpha virt. eigenvalues --    1.75434   1.76140   1.77240   1.77866   1.78423
 Alpha virt. eigenvalues --    1.79059   1.79413   1.80121   1.81157   1.81301
 Alpha virt. eigenvalues --    1.82126   1.82591   1.83179   1.84210   1.85415
 Alpha virt. eigenvalues --    1.87077   1.87890   1.89241   1.90075   1.90403
 Alpha virt. eigenvalues --    1.91539   1.92235   1.92785   1.94559   1.94743
 Alpha virt. eigenvalues --    1.96281   1.96799   1.98284   1.99155   1.99846
 Alpha virt. eigenvalues --    2.00103   2.01295   2.02041   2.03148   2.04809
 Alpha virt. eigenvalues --    2.06825   2.09860   2.09931   2.11305   2.12953
 Alpha virt. eigenvalues --    2.13166   2.13992   2.14771   2.15365   2.16092
 Alpha virt. eigenvalues --    2.16190   2.17724   2.18411   2.19733   2.20688
 Alpha virt. eigenvalues --    2.23083   2.23782   2.24226   2.28020   2.28194
 Alpha virt. eigenvalues --    2.29015   2.29617   2.30511   2.31494   2.32392
 Alpha virt. eigenvalues --    2.32659   2.32991   2.33306   2.33684   2.33975
 Alpha virt. eigenvalues --    2.34184   2.34986   2.36465   2.37123   2.38497
 Alpha virt. eigenvalues --    2.42044   2.43473   2.46248   2.48525   2.51274
 Alpha virt. eigenvalues --    2.51817   2.52959   2.53213   2.54552   2.55643
 Alpha virt. eigenvalues --    2.56762   2.57120   2.58775   2.59235   2.60577
 Alpha virt. eigenvalues --    2.64356   2.64495   2.64984   2.65923   2.66162
 Alpha virt. eigenvalues --    2.67840   2.68405   2.71435   2.74794   2.75690
 Alpha virt. eigenvalues --    2.76422   2.77697   2.78705   2.82009   2.85286
 Alpha virt. eigenvalues --    2.87730   2.90857   2.91489   2.93416   2.96331
 Alpha virt. eigenvalues --    3.02616   3.05627   3.05692   3.08437   3.10295
 Alpha virt. eigenvalues --    3.11622   3.22370   3.29649   3.32517   3.46569
 Alpha virt. eigenvalues --   21.74000
          Condensed to atoms (all electrons):
 Mulliken charges:
               1
     1  Co   0.321501
     2  N   -0.170575
     3  O   -0.568453
     4  C    0.314944
     5  C   -0.547419
     6  H    0.196341
     7  H    0.204509
     8  H    0.201385
     9  N   -0.074452
    10  O   -0.558729
    11  C    0.272624
    12  C   -0.548614
    13  H    0.190813
    14  H    0.185803
    15  H    0.188882
    16  N   -0.160391
    17  O   -0.573499
    18  C    0.324056
    19  C   -0.545963
    20  H    0.204622
    21  H    0.198770
    22  H    0.199963
    23  N   -0.076087
    24  O   -0.555665
    25  C    0.267714
    26  C   -0.548583
    27  H    0.190190
    28  H    0.188800
    29  H    0.186611
    30  H    0.471279
    31  H    0.470085
    32  C   -0.398819
    33  H    0.184874
    34  H    0.192985
    35  C    0.226241
    36  C   -0.247034
    37  H    0.151865
    38  C   -0.553278
    39  H    0.172745
    40  H    0.171871
    41  H    0.186943
    42  C    0.157009
    43  C   -0.203925
    44  C   -0.205524
    45  C   -0.157758
    46  H    0.160769
    47  C   -0.153433
    48  H    0.154009
    49  C   -0.150825
    50  H    0.153300
    51  H    0.153960
    52  H    0.153561
 Sum of Mulliken charges =  -0.00000
 Mulliken charges with hydrogens summed into heavy atoms:
               1
     1  Co   0.321501
     2  N   -0.170575
     3  O   -0.097174
     4  C    0.314944
     5  C    0.054816
     9  N   -0.074452
    10  O   -0.558729
    11  C    0.272624
    12  C    0.016885
    16  N   -0.160391
    17  O   -0.103414
    18  C    0.324056
    19  C    0.057393
    23  N   -0.076087
    24  O   -0.555665
    25  C    0.267714
    26  C    0.017019
    32  C   -0.020960
    35  C    0.226241
    36  C   -0.095169
    38  C   -0.021719
    42  C    0.157009
    43  C   -0.043156
    44  C   -0.051516
    45  C   -0.004457
    47  C    0.000526
    49  C    0.002736
 Electronic spatial extent (au):  <R**2>=          10343.7044
 Charge=             -0.0000 electrons
 Dipole moment (field-independent basis, Debye):
    X=             -0.1436    Y=              0.4241    Z=              0.8507  Tot=              0.9614
 Quadrupole moment (field-independent basis, Debye-Ang):
   XX=           -151.1020   YY=           -147.2863   ZZ=           -172.7106
   XY=            -21.1902   XZ=              5.6900   YZ=             12.9195
 Traceless Quadrupole moment (field-independent basis, Debye-Ang):
   XX=              5.9310   YY=              9.7466   ZZ=            -15.6776
   XY=            -21.1902   XZ=              5.6900   YZ=             12.9195
 Octapole moment (field-independent basis, Debye-Ang**2):
  XXX=             36.4317  YYY=             14.1196  ZZZ=             16.0641  XYY=             12.3266
  XXY=            -70.9757  XXZ=             34.6960  XZZ=             35.3711  YZZ=             19.9908
  YYZ=             20.9141  XYZ=              8.2797
 Hexadecapole moment (field-independent basis, Debye-Ang**3):
 XXXX=          -7715.1784 YYYY=          -3622.0753 ZZZZ=          -1393.4081 XXXY=           -179.9130
 XXXZ=            -24.6984 YYYX=            -94.5707 YYYZ=            101.8349 ZZZX=            -39.3443
 ZZZY=              7.8806 XXYY=          -1842.6833 XXZZ=          -1753.3153 YYZZ=           -861.5672
 XXYZ=             16.7909 YYXZ=              3.5990 ZZXY=            -36.1945
 N-N= 2.999467809027D+03 E-N=-9.190486602835D+03  KE= 1.300227589694D+03
 Unable to Open any file for archive entry.
 1\1\GINC-N204\SP\RB3LYP\GenECP\C18H25Co1N4O4\CJD\02-Mar-2023\0\\# B3LY
 P/genecp em=GD3BJ int=fine scrf=(smd,solvent=acetone)\\Template\\0,1\C
 o,0,-1.0601776195,-0.655967095,-0.5378291309\N,0,-0.8007505082,1.19652
 34687,-0.3082935755\O,0,0.0777530227,1.9839042762,-0.9918571882\C,0,-1
 .5920386321,1.7495395663,0.5540968157\C,0,-1.6160130629,3.2132709639,0
 .8409773803\H,0,-1.6226549912,3.3924750345,1.9131231501\H,0,-2.5161813
 036,3.6589327692,0.4190824957\H,0,-0.7464748688,3.6849494067,0.3900044
 143\N,0,-2.2828155066,-0.4247965547,0.8715029328\O,0,-2.9752825002,-1.
 3867742241,1.3958744104\C,0,-2.4578225307,0.8158861311,1.2329236414\C,
 0,-3.4510241179,1.2382966679,2.2685939001\H,0,-4.0376080588,0.36880395
 ,2.5582916539\H,0,-4.1129271911,2.0085520583,1.8779057882\H,0,-2.94682
 10477,1.6304500525,3.1505878794\N,0,-1.5559013646,-2.4135530817,-0.967
 3037466\O,0,-2.3589106402,-3.2286514727,-0.2251957068\C,0,-1.100176953
 9,-2.8483294441,-2.0981241728\C,0,-1.4143926194,-4.1932837998,-2.65886
 8079\H,0,-0.5262453633,-4.822273895,-2.6244606098\H,0,-1.7304483545,-4
 .1080899137,-3.6958278531\H,0,-2.1995066457,-4.6596745084,-2.069424814
 4\N,0,-0.0375693521,-0.8057050371,-2.1209801483\O,0,0.7442486464,0.122
 1981823,-2.5764775611\C,0,-0.2219898484,-1.9218650962,-2.7699984684\C,
 0,0.4343271637,-2.2351616482,-4.0768927647\H,0,1.0941241498,-1.4101424
 715,-4.33794991\H,0,-0.308677765,-2.3574827616,-4.8636433289\H,0,1.014
 6282493,-3.152808676,-4.0047067799\H,0,0.4971169145,1.3451260224,-1.68
 95865501\H,0,-2.6973456713,-2.618863927,0.5426686765\C,0,0.4095636069,
 -1.3531552399,0.665507857\H,0,-0.1099035323,-2.0322177131,1.3400895821
 \H,0,1.056369843,-1.8906345897,-0.0272065679\C,0,1.0843070329,-0.26660
 58783,1.3466613017\C,0,2.1619800582,0.312380584,0.7499026109\H,0,2.464
 022471,-0.1074831544,-0.2020432959\C,0,0.5875514739,0.1069551274,2.713
 9916255\H,0,0.015179727,-0.7125146766,3.1409705023\H,0,1.4212901988,0.
 3392751464,3.3718254852\H,0,-0.0688258424,0.9737933978,2.6652733787\C,
 0,3.0137033325,1.3903654602,1.2010373551\C,0,2.6137221847,2.4018589959
 ,2.0806607126\C,0,4.3198052161,1.4469939801,0.692466464\C,0,3.49017558
 07,3.4036354939,2.4535504163\H,0,1.601769361,2.4311851117,2.4438563491
 \C,0,5.1967010334,2.4393953682,1.0786791301\H,0,4.6435050947,0.6877655
 271,-0.0049694606\C,0,4.7873782467,3.4226137702,1.9674993519\H,0,3.157
 8117432,4.1795179148,3.128107589\H,0,6.2017011986,2.4544507277,0.68226
 33272\H,0,5.4705644279,4.2032657675,2.2677910745\\Version=ES64L-G16Rev
 C.01\State=1-A\HF=-1365.931894\RMSD=9.308e-09\Dipole=-0.1691984,0.3236
 84,-0.098326\Quadrupole=-4.8704599,4.2804585,0.5900014,-8.3559085,3.03
 93259,19.0266047\PG=C01 [X(C18H25Co1N4O4)]\\@
 The archive entry for this job was punched.


 THE DIFFERENCE BETWEEN A NOOSE AND A HALO IS ONLY 12 INCHES.
 Job cpu time:       0 days  0 hours 21 minutes 26.4 seconds.
 Elapsed time:       0 days  0 hours  1 minutes 22.8 seconds.
 File lengths (MBytes):  RWF=    332 Int=      0 D2E=      0 Chk=     14 Scr=      1
 Normal termination of Gaussian 16 at Thu Mar  2 08:53:38 2023.
